VARIABLES = X, Y, T, ap,an,as,aw,ae,sp,su
ZONE I=20,J=20, F=POINT,t="6.316"
0.00125   0.00975   293.081   1137.797   0.000   268.000   0.000   10.720   0.000   -0.000
0.00375   0.00975   293.105   1137.797   0.000   268.000   10.720   10.720   0.000   -0.000
0.00625   0.00975   293.159   1137.797   0.000   268.000   10.720   10.720   0.000   -0.000
0.00875   0.00975   293.250   1137.797   0.000   268.000   10.720   10.720   0.000   -0.000
0.01125   0.00975   293.397   1137.797   0.000   268.000   10.720   10.720   0.000   -0.000
0.01375   0.00975   293.620   1137.797   0.000   268.000   10.720   10.720   0.000   -0.000
0.01625   0.00975   293.952   1137.797   0.000   268.000   10.720   10.720   0.000   -0.001
0.01875   0.00975   294.431   1137.797   0.000   268.000   10.720   10.720   0.000   -0.001
0.02125   0.00975   295.107   1137.797   0.000   268.000   10.720   10.720   0.000   -0.002
0.02375   0.00975   296.042   1137.797   0.000   268.000   10.720   10.720   0.000   -0.002
0.02625   0.00975   297.316   1137.797   0.000   268.000   10.720   10.720   0.000   -0.003
0.02875   0.00975   299.055   1137.797   0.000   268.000   10.720   10.720   0.000   -0.005
0.03125   0.00975   301.731   1137.797   0.000   268.000   10.720   10.720   0.000   81.357
0.03375   0.00975   303.615   1137.797   0.000   268.000   10.720   10.720   0.000   81.332
0.03625   0.00975   305.187   1137.797   0.000   268.000   10.720   10.720   0.000   81.311
0.03875   0.00975   306.584   1137.797   0.000   268.000   10.720   10.720   0.000   81.292
0.04125   0.00975   307.902   1137.797   0.000   268.000   10.720   10.720   0.000   81.274
0.04375   0.00975   309.219   1137.797   0.000   268.000   10.720   10.720   0.000   81.255
0.04625   0.00975   310.592   1137.797   0.000   268.000   10.720   10.720   0.000   81.235
0.04875   0.00975   312.051   1137.797   0.000   268.000   10.720   0.000   0.000   97.460
0.00125   0.00925   293.081   1137.797   268.000   268.000   0.000   10.720   0.000   0.000
0.00375   0.00925   293.105   1137.797   268.000   268.000   10.720   10.720   0.000   0.000
0.00625   0.00925   293.158   1137.797   268.000   268.000   10.720   10.720   0.000   0.000
0.00875   0.00925   293.250   1137.797   268.000   268.000   10.720   10.720   0.000   0.000
0.01125   0.00925   293.397   1137.797   268.000   268.000   10.720   10.720   0.000   0.000
0.01375   0.00925   293.620   1137.797   268.000   268.000   10.720   10.720   0.000   0.000
0.01625   0.00925   293.951   1137.797   268.000   268.000   10.720   10.720   0.000   0.000
0.01875   0.00925   294.430   1137.797   268.000   268.000   10.720   10.720   0.000   0.000
0.02125   0.00925   295.106   1137.797   268.000   268.000   10.720   10.720   0.000   0.000
0.02375   0.00925   296.041   1137.797   268.000   268.000   10.720   10.720   0.000   0.000
0.02625   0.00925   297.312   1137.797   268.000   268.000   10.720   10.720   0.000   0.000
0.02875   0.00925   299.036   1137.797   268.000   268.000   10.720   10.720   0.000   0.000
0.03125   0.00925   301.480   1137.797   268.000   268.000   10.720   10.720   0.000   0.000
0.03375   0.00925   303.349   1137.797   268.000   268.000   10.720   10.720   0.000   0.000
0.03625   0.00925   304.918   1137.797   268.000   268.000   10.720   10.720   0.000   0.000
0.03875   0.00925   306.315   1137.797   268.000   268.000   10.720   10.720   0.000   0.000
0.04125   0.00925   307.632   1137.797   268.000   268.000   10.720   10.720   0.000   0.000
0.04375   0.00925   308.949   1137.797   268.000   268.000   10.720   10.720   0.000   0.000
0.04625   0.00925   310.323   1137.797   268.000   268.000   10.720   10.720   0.000   0.000
0.04875   0.00925   311.783   1137.797   268.000   268.000   10.720   0.000   0.000   16.246
0.00125   0.00875   293.081   1137.797   268.000   268.000   0.000   10.720   0.000   0.000
0.00375   0.00875   293.105   1137.797   268.000   268.000   10.720   10.720   0.000   0.000
0.00625   0.00875   293.158   1137.797   268.000   268.000   10.720   10.720   0.000   0.000
0.00875   0.00875   293.250   1137.797   268.000   268.000   10.720   10.720   0.000   0.000
0.01125   0.00875   293.396   1137.797   268.000   268.000   10.720   10.720   0.000   0.000
0.01375   0.00875   293.620   1137.797   268.000   268.000   10.720   10.720   0.000   0.000
0.01625   0.00875   293.950   1137.797   268.000   268.000   10.720   10.720   0.000   0.000
0.01875   0.00875   294.429   1137.797   268.000   268.000   10.720   10.720   0.000   0.000
0.02125   0.00875   295.104   1137.797   268.000   268.000   10.720   10.720   0.000   0.000
0.02375   0.00875   296.038   1137.797   268.000   268.000   10.720   10.720   0.000   0.000
0.02625   0.00875   297.305   1137.797   268.000   268.000   10.720   10.720   0.000   0.000
0.02875   0.00875   299.005   1137.797   268.000   268.000   10.720   10.720   0.000   0.000
0.03125   0.00875   301.273   1137.797   268.000   268.000   10.720   10.720   0.000   0.000
0.03375   0.00875   303.119   1137.797   268.000   268.000   10.720   10.720   0.000   0.000
0.03625   0.00875   304.683   1137.797   268.000   268.000   10.720   10.720   0.000   0.000
0.03875   0.00875   306.079   1137.797   268.000   268.000   10.720   10.720   0.000   0.000
0.04125   0.00875   307.396   1137.797   268.000   268.000   10.720   10.720   0.000   0.000
0.04375   0.00875   308.712   1137.797   268.000   268.000   10.720   10.720   0.000   0.000
0.04625   0.00875   310.087   1137.797   268.000   268.000   10.720   10.720   0.000   0.000
0.04875   0.00875   311.551   1137.797   268.000   268.000   10.720   0.000   0.000   16.247
0.00125   0.00825   293.081   1137.797   268.000   268.000   0.000   10.720   0.000   0.000
0.00375   0.00825   293.105   1137.797   268.000   268.000   10.720   10.720   0.000   0.000
0.00625   0.00825   293.158   1137.797   268.000   268.000   10.720   10.720   0.000   0.000
0.00875   0.00825   293.250   1137.797   268.000   268.000   10.720   10.720   0.000   0.000
0.01125   0.00825   293.396   1137.797   268.000   268.000   10.720   10.720   0.000   0.000
0.01375   0.00825   293.619   1137.797   268.000   268.000   10.720   10.720   0.000   0.000
0.01625   0.00825   293.949   1137.797   268.000   268.000   10.720   10.720   0.000   0.000
0.01875   0.00825   294.427   1137.797   268.000   268.000   10.720   10.720   0.000   0.000
0.02125   0.00825   295.101   1137.797   268.000   268.000   10.720   10.720   0.000   0.000
0.02375   0.00825   296.033   1137.797   268.000   268.000   10.720   10.720   0.000   0.000
0.02625   0.00825   297.295   1137.797   268.000   268.000   10.720   10.720   0.000   0.000
0.02875   0.00825   298.970   1137.797   268.000   268.000   10.720   10.720   0.000   0.000
0.03125   0.00825   301.104   1137.797   268.000   268.000   10.720   10.720   0.000   0.000
0.03375   0.00825   302.925   1137.797   268.000   268.000   10.720   10.720   0.000   0.000
0.03625   0.00825   304.484   1137.797   268.000   268.000   10.720   10.720   0.000   0.000
0.03875   0.00825   305.877   1137.797   268.000   268.000   10.720   10.720   0.000   0.000
0.04125   0.00825   307.193   1137.797   268.000   268.000   10.720   10.720   0.000   0.000
0.04375   0.00825   308.508   1137.797   268.000   268.000   10.720   10.720   0.000   0.000
0.04625   0.00825   309.884   1137.797   268.000   268.000   10.720   10.720   0.000   0.000
0.04875   0.00825   311.356   1137.797   268.000   268.000   10.720   0.000   0.000   16.248
0.00125   0.00775   293.081   1137.797   268.000   268.000   0.000   10.720   0.000   0.000
0.00375   0.00775   293.105   1137.797   268.000   268.000   10.720   10.720   0.000   0.000
0.00625   0.00775   293.158   1137.797   268.000   268.000   10.720   10.720   0.000   0.000
0.00875   0.00775   293.249   1137.797   268.000   268.000   10.720   10.720   0.000   0.000
0.01125   0.00775   293.395   1137.797   268.000   268.000   10.720   10.720   0.000   0.000
0.01375   0.00775   293.618   1137.797   268.000   268.000   10.720   10.720   0.000   0.000
0.01625   0.00775   293.947   1137.797   268.000   268.000   10.720   10.720   0.000   0.000
0.01875   0.00775   294.424   1137.797   268.000   268.000   10.720   10.720   0.000   0.000
0.02125   0.00775   295.098   1137.797   268.000   268.000   10.720   10.720   0.000   0.000
0.02375   0.00775   296.028   1137.797   268.000   268.000   10.720   10.720   0.000   0.000
0.02625   0.00775   297.284   1137.797   268.000   268.000   10.720   10.720   0.000   0.000
0.02875   0.00775   298.934   1137.797   268.000   268.000   10.720   10.720   0.000   0.000
0.03125   0.00775   300.969   1137.797   268.000   268.000   10.720   10.720   0.000   0.000
0.03375   0.00775   302.765   1137.797   268.000   268.000   10.720   10.720   0.000   0.000
0.03625   0.00775   304.318   1137.797   268.000   268.000   10.720   10.720   0.000   0.000
0.03875   0.00775   305.709   1137.797   268.000   268.000   10.720   10.720   0.000   0.000
0.04125   0.00775   307.023   1137.797   268.000   268.000   10.720   10.720   0.000   0.000
0.04375   0.00775   308.338   1137.797   268.000   268.000   10.720   10.720   0.000   0.000
0.04625   0.00775   309.715   1137.797   268.000   268.000   10.720   10.720   0.000   0.000
0.04875   0.00775   311.196   1137.797   268.000   268.000   10.720   0.000   0.000   16.248
0.00125   0.00725   293.081   1137.797   268.000   268.000   0.000   10.720   0.000   0.000
0.00375   0.00725   293.105   1137.797   268.000   268.000   10.720   10.720   0.000   0.000
0.00625   0.00725   293.157   1137.797   268.000   268.000   10.720   10.720   0.000   0.000
0.00875   0.00725   293.249   1137.797   268.000   268.000   10.720   10.720   0.000   0.000
0.01125   0.00725   293.394   1137.797   268.000   268.000   10.720   10.720   0.000   0.000
0.01375   0.00725   293.616   1137.797   268.000   268.000   10.720   10.720   0.000   0.000
0.01625   0.00725   293.945   1137.797   268.000   268.000   10.720   10.720   0.000   0.000
0.01875   0.00725   294.421   1137.797   268.000   268.000   10.720   10.720   0.000   0.000
0.02125   0.00725   295.093   1137.797   268.000   268.000   10.720   10.720   0.000   0.000
0.02375   0.00725   296.021   1137.797   268.000   268.000   10.720   10.720   0.000   0.000
0.02625   0.00725   297.271   1137.797   268.000   268.000   10.720   10.720   0.000   0.000
0.02875   0.00725   298.901   1137.797   268.000   268.000   10.720   10.720   0.000   0.000
0.03125   0.00725   300.865   1137.797   268.000   268.000   10.720   10.720   0.000   0.000
0.03375   0.00725   302.640   1137.797   268.000   268.000   10.720   10.720   0.000   0.000
0.03625   0.00725   304.187   1137.797   268.000   268.000   10.720   10.720   0.000   0.000
0.03875   0.00725   305.575   1137.797   268.000   268.000   10.720   10.720   0.000   0.000
0.04125   0.00725   306.887   1137.797   268.000   268.000   10.720   10.720   0.000   0.000
0.04375   0.00725   308.200   1137.797   268.000   268.000   10.720   10.720   0.000   0.000
0.04625   0.00725   309.579   1137.797   268.000   268.000   10.720   10.720   0.000   0.000
0.04875   0.00725   311.073   1137.797   268.000   268.000   10.720   0.000   0.000   16.248
0.00125   0.00675   293.080   1137.797   268.000   268.000   0.000   10.720   0.000   0.000
0.00375   0.00675   293.104   1137.797   268.000   268.000   10.720   10.720   0.000   0.000
0.00625   0.00675   293.157   1137.797   268.000   268.000   10.720   10.720   0.000   0.000
0.00875   0.00675   293.248   1137.797   268.000   268.000   10.720   10.720   0.000   0.000
0.01125   0.00675   293.393   1137.797   268.000   268.000   10.720   10.720   0.000   0.000
0.01375   0.00675   293.614   1137.797   268.000   268.000   10.720   10.720   0.000   0.000
0.01625   0.00675   293.943   1137.797   268.000   268.000   10.720   10.720   0.000   0.000
0.01875   0.00675   294.418   1137.797   268.000   268.000   10.720   10.720   0.000   0.000
0.02125   0.00675   295.088   1137.797   268.000   268.000   10.720   10.720   0.000   0.000
0.02375   0.00675   296.013   1137.797   268.000   268.000   10.720   10.720   0.000   0.000
0.02625   0.00675   297.258   1137.797   268.000   268.000   10.720   10.720   0.000   0.000
0.02875   0.00675   298.872   1137.797   268.000   268.000   10.720   10.720   0.000   0.000
0.03125   0.00675   300.789   1137.797   268.000   268.000   10.720   10.720   0.000   0.000
0.03375   0.00675   302.548   1137.797   268.000   268.000   10.720   10.720   0.000   0.000
0.03625   0.00675   304.089   1137.797   268.000   268.000   10.720   10.720   0.000   0.000
0.03875   0.00675   305.474   1137.797   268.000   268.000   10.720   10.720   0.000   0.000
0.04125   0.00675   306.784   1137.797   268.000   268.000   10.720   10.720   0.000   0.000
0.04375   0.00675   308.095   1137.797   268.000   268.000   10.720   10.720   0.000   0.000
0.04625   0.00675   309.475   1137.797   268.000   268.000   10.720   10.720   0.000   0.000
0.04875   0.00675   310.986   1137.797   268.000   268.000   10.720   0.000   0.000   16.249
0.00125   0.00625   293.080   1137.797   268.000   2.085   0.000   10.720   0.000   0.000
0.00375   0.00625   293.104   1137.797   268.000   2.085   10.720   10.720   0.000   0.000
0.00625   0.00625   293.156   1137.797   268.000   2.085   10.720   10.720   0.000   0.000
0.00875   0.00625   293.247   1137.797   268.000   2.085   10.720   10.720   0.000   0.000
0.01125   0.00625   293.391   1137.797   268.000   2.085   10.720   10.720   0.000   0.000
0.01375   0.00625   293.612   1137.797   268.000   2.085   10.720   10.720   0.000   0.000
0.01625   0.00625   293.940   1137.797   268.000   2.085   10.720   10.720   0.000   0.000
0.01875   0.00625   294.413   1137.797   268.000   2.085   10.720   10.720   0.000   0.000
0.02125   0.00625   295.082   1137.797   268.000   2.085   10.720   10.720   0.000   0.000
0.02375   0.00625   296.004   1137.797   268.000   2.085   10.720   10.720   0.000   0.000
0.02625   0.00625   297.245   1137.797   268.000   2.085   10.720   10.720   0.000   0.000
0.02875   0.00625   298.849   1137.797   268.000   2.085   10.720   10.720   0.000   0.000
0.03125   0.00625   300.741   1137.797   268.000   2.085   10.720   10.720   0.000   0.000
0.03375   0.00625   302.490   1137.797   268.000   2.085   10.720   10.720   0.000   0.000
0.03625   0.00625   304.026   1137.797   268.000   2.085   10.720   10.720   0.000   0.000
0.03875   0.00625   305.407   1137.797   268.000   2.085   10.720   10.720   0.000   0.000
0.04125   0.00625   306.714   1137.797   268.000   2.085   10.720   10.720   0.000   0.000
0.04375   0.00625   308.023   1137.797   268.000   2.085   10.720   10.720   0.000   0.000
0.04625   0.00625   309.403   1137.797   268.000   2.085   10.720   10.720   0.000   0.000
0.04875   0.00625   310.938   1137.797   268.000   2.085   10.720   0.000   0.000   16.249
0.00125   0.00575   293.033   686.719   2.085   1.046   0.000   0.042   0.000   0.000
0.00375   0.00575   293.045   686.719   2.085   1.046   0.042   0.042   0.000   0.000
0.00625   0.00575   293.071   686.719   2.085   1.046   0.042   0.042   0.000   0.000
0.00875   0.00575   293.117   686.719   2.085   1.046   0.042   0.042   0.000   0.000
0.01125   0.00575   293.193   686.719   2.085   1.046   0.042   0.042   0.000   0.000
0.01375   0.00575   293.314   686.719   2.085   1.046   0.042   0.042   0.000   0.000
0.01625   0.00575   293.500   686.719   2.085   1.046   0.042   0.042   0.000   0.000
0.01875   0.00575   293.780   686.719   2.085   1.046   0.042   0.042   0.000   0.000
0.02125   0.00575   294.191   686.719   2.085   1.046   0.042   0.042   0.000   0.000
0.02375   0.00575   294.779   686.719   2.085   1.046   0.042   0.042   0.000   0.000
0.02625   0.00575   295.596   686.719   2.085   1.046   0.042   0.042   0.000   0.000
0.02875   0.00575   296.682   686.719   2.085   1.046   0.042   0.042   0.000   0.000
0.03125   0.00575   297.981   686.719   2.085   1.046   0.042   0.042   0.000   0.000
0.03375   0.00575   299.166   686.719   2.085   1.046   0.042   0.042   0.000   0.000
0.03625   0.00575   300.189   686.719   2.085   1.046   0.042   0.042   0.000   0.000
0.03875   0.00575   301.107   686.719   2.085   1.046   0.042   0.042   0.000   0.000
0.04125   0.00575   301.994   686.719   2.085   1.046   0.042   0.042   0.000   0.000
0.04375   0.00575   302.928   686.719   2.085   1.046   0.042   0.042   0.000   0.000
0.04625   0.00575   304.108   686.719   2.085   1.046   0.042   0.042   0.000   0.000
0.04875   0.00575   309.666   686.719   2.085   1.046   0.042   0.000   0.000   6.095
0.00125   0.00525   293.008   686.719   1.046   1.046   0.000   0.042   0.000   0.000
0.00375   0.00525   293.011   686.719   1.046   1.046   0.042   0.042   0.000   0.000
0.00625   0.00525   293.019   686.719   1.046   1.046   0.042   0.042   0.000   0.000
0.00875   0.00525   293.033   686.719   1.046   1.046   0.042   0.042   0.000   0.000
0.01125   0.00525   293.057   686.719   1.046   1.046   0.042   0.042   0.000   0.000
0.01375   0.00525   293.097   686.719   1.046   1.046   0.042   0.042   0.000   0.000
0.01625   0.00525   293.163   686.719   1.046   1.046   0.042   0.042   0.000   0.000
0.01875   0.00525   293.268   686.719   1.046   1.046   0.042   0.042   0.000   0.000
0.02125   0.00525   293.429   686.719   1.046   1.046   0.042   0.042   0.000   0.000
0.02375   0.00525   293.673   686.719   1.046   1.046   0.042   0.042   0.000   0.000
0.02625   0.00525   294.031   686.719   1.046   1.046   0.042   0.042   0.000   0.000
0.02875   0.00525   294.527   686.719   1.046   1.046   0.042   0.042   0.000   0.000
0.03125   0.00525   295.137   686.719   1.046   1.046   0.042   0.042   0.000   0.000
0.03375   0.00525   295.687   686.719   1.046   1.046   0.042   0.042   0.000   0.000
0.03625   0.00525   296.159   686.719   1.046   1.046   0.042   0.042   0.000   0.000
0.03875   0.00525   296.597   686.719   1.046   1.046   0.042   0.042   0.000   0.000
0.04125   0.00525   297.055   686.719   1.046   1.046   0.042   0.042   0.000   0.000
0.04375   0.00525   297.600   686.719   1.046   1.046   0.042   0.042   0.000   0.000
0.04625   0.00525   298.575   686.719   1.046   1.046   0.042   0.042   0.000   0.000
0.04875   0.00525   307.536   686.719   1.046   1.046   0.042   0.000   0.000   6.097
0.00125   0.00475   293.002   686.719   1.046   1.046   0.000   0.042   0.000   0.000
0.00375   0.00475   293.003   686.719   1.046   1.046   0.042   0.042   0.000   0.000
0.00625   0.00475   293.005   686.719   1.046   1.046   0.042   0.042   0.000   0.000
0.00875   0.00475   293.009   686.719   1.046   1.046   0.042   0.042   0.000   0.000
0.01125   0.00475   293.016   686.719   1.046   1.046   0.042   0.042   0.000   0.000
0.01375   0.00475   293.028   686.719   1.046   1.046   0.042   0.042   0.000   0.000
0.01625   0.00475   293.050   686.719   1.046   1.046   0.042   0.042   0.000   0.000
0.01875   0.00475   293.087   686.719   1.046   1.046   0.042   0.042   0.000   0.000
0.02125   0.00475   293.147   686.719   1.046   1.046   0.042   0.042   0.000   0.000
0.02375   0.00475   293.242   686.719   1.046   1.046   0.042   0.042   0.000   0.000
0.02625   0.00475   293.390   686.719   1.046   1.046   0.042   0.042   0.000   0.000
0.02875   0.00475   293.606   686.719   1.046   1.046   0.042   0.042   0.000   0.000
0.03125   0.00475   293.884   686.719   1.046   1.046   0.042   0.042   0.000   0.000
0.03375   0.00475   294.154   686.719   1.046   1.046   0.042   0.042   0.000   0.000
0.03625   0.00475   294.418   686.719   1.046   1.046   0.042   0.042   0.000   0.000
0.03875   0.00475   294.708   686.719   1.046   1.046   0.042   0.042   0.000   0.000
0.04125   0.00475   295.066   686.719   1.046   1.046   0.042   0.042   0.000   0.000
0.04375   0.00475   295.546   686.719   1.046   1.046   0.042   0.042   0.000   0.000
0.04625   0.00475   296.484   686.719   1.046   1.046   0.042   0.042   0.000   0.000
0.04875   0.00475   305.429   686.719   1.046   1.046   0.042   0.000   0.000   6.099
0.00125   0.00425   293.001   686.719   1.046   2.085   0.000   0.042   0.000   0.000
0.00375   0.00425   293.001   686.719   1.046   2.085   0.042   0.042   0.000   0.000
0.00625   0.00425   293.002   686.719   1.046   2.085   0.042   0.042   0.000   0.000
0.00875   0.00425   293.004   686.719   1.046   2.085   0.042   0.042   0.000   0.000
0.01125   0.00425   293.007   686.719   1.046   2.085   0.042   0.042   0.000   0.000
0.01375   0.00425   293.013   686.719   1.046   2.085   0.042   0.042   0.000   0.000
0.01625   0.00425   293.024   686.719   1.046   2.085   0.042   0.042   0.000   0.000
0.01875   0.00425   293.042   686.719   1.046   2.085   0.042   0.042   0.000   0.000
0.02125   0.00425   293.074   686.719   1.046   2.085   0.042   0.042   0.000   0.000
0.02375   0.00425   293.126   686.719   1.046   2.085   0.042   0.042   0.000   0.000
0.02625   0.00425   293.209   686.719   1.046   2.085   0.042   0.042   0.000   0.000
0.02875   0.00425   293.335   686.719   1.046   2.085   0.042   0.042   0.000   0.000
0.03125   0.00425   293.515   686.719   1.046   2.085   0.042   0.042   0.000   0.000
0.03375   0.00425   293.742   686.719   1.046   2.085   0.042   0.042   0.000   0.000
0.03625   0.00425   294.034   686.719   1.046   2.085   0.042   0.042   0.000   0.000
0.03875   0.00425   294.422   686.719   1.046   2.085   0.042   0.042   0.000   0.000
0.04125   0.00425   294.940   686.719   1.046   2.085   0.042   0.042   0.000   0.000
0.04375   0.00425   295.630   686.719   1.046   2.085   0.042   0.042   0.000   0.000
0.04625   0.00425   296.664   686.719   1.046   2.085   0.042   0.042   0.000   0.000
0.04875   0.00425   302.156   686.719   1.046   2.085   0.042   0.000   0.000   6.102
0.00125   0.00375   293.001   1137.797   2.085   268.000   0.000   10.720   0.000   0.000
0.00375   0.00375   293.002   1137.797   2.085   268.000   10.720   10.720   0.000   0.000
0.00625   0.00375   293.003   1137.797   2.085   268.000   10.720   10.720   0.000   0.000
0.00875   0.00375   293.006   1137.797   2.085   268.000   10.720   10.720   0.000   0.000
0.01125   0.00375   293.011   1137.797   2.085   268.000   10.720   10.720   0.000   0.000
0.01375   0.00375   293.019   1137.797   2.085   268.000   10.720   10.720   0.000   0.000
0.01625   0.00375   293.034   1137.797   2.085   268.000   10.720   10.720   0.000   0.000
0.01875   0.00375   293.059   1137.797   2.085   268.000   10.720   10.720   0.000   0.000
0.02125   0.00375   293.099   1137.797   2.085   268.000   10.720   10.720   0.000   0.000
0.02375   0.00375   293.161   1137.797   2.085   268.000   10.720   10.720   0.000   0.000
0.02625   0.00375   293.257   1137.797   2.085   268.000   10.720   10.720   0.000   0.000
0.02875   0.00375   293.400   1137.797   2.085   268.000   10.720   10.720   0.000   0.000
0.03125   0.00375   293.606   1137.797   2.085   268.000   10.720   10.720   0.000   0.000
0.03375   0.00375   293.897   1137.797   2.085   268.000   10.720   10.720   0.000   0.000
0.03625   0.00375   294.296   1137.797   2.085   268.000   10.720   10.720   0.000   0.000
0.03875   0.00375   294.831   1137.797   2.085   268.000   10.720   10.720   0.000   0.000
0.04125   0.00375   295.532   1137.797   2.085   268.000   10.720   10.720   0.000   0.000
0.04375   0.00375   296.430   1137.797   2.085   268.000   10.720   10.720   0.000   0.000
0.04625   0.00375   297.558   1137.797   2.085   268.000   10.720   10.720   0.000   0.000
0.04875   0.00375   298.973   1137.797   2.085   268.000   10.720   0.000   0.000   16.280
0.00125   0.00325   293.001   1137.797   268.000   268.000   0.000   10.720   0.000   0.000
0.00375   0.00325   293.002   1137.797   268.000   268.000   10.720   10.720   0.000   0.000
0.00625   0.00325   293.003   1137.797   268.000   268.000   10.720   10.720   0.000   0.000
0.00875   0.00325   293.006   1137.797   268.000   268.000   10.720   10.720   0.000   0.000
0.01125   0.00325   293.011   1137.797   268.000   268.000   10.720   10.720   0.000   0.000
0.01375   0.00325   293.019   1137.797   268.000   268.000   10.720   10.720   0.000   0.000
0.01625   0.00325   293.034   1137.797   268.000   268.000   10.720   10.720   0.000   0.000
0.01875   0.00325   293.059   1137.797   268.000   268.000   10.720   10.720   0.000   0.000
0.02125   0.00325   293.099   1137.797   268.000   268.000   10.720   10.720   0.000   0.000
0.02375   0.00325   293.162   1137.797   268.000   268.000   10.720   10.720   0.000   0.000
0.02625   0.00325   293.258   1137.797   268.000   268.000   10.720   10.720   0.000   0.000
0.02875   0.00325   293.400   1137.797   268.000   268.000   10.720   10.720   0.000   0.000
0.03125   0.00325   293.607   1137.797   268.000   268.000   10.720   10.720   0.000   0.000
0.03375   0.00325   293.898   1137.797   268.000   268.000   10.720   10.720   0.000   0.000
0.03625   0.00325   294.298   1137.797   268.000   268.000   10.720   10.720   0.000   0.000
0.03875   0.00325   294.834   1137.797   268.000   268.000   10.720   10.720   0.000   0.000
0.04125   0.00325   295.536   1137.797   268.000   268.000   10.720   10.720   0.000   0.000
0.04375   0.00325   296.435   1137.797   268.000   268.000   10.720   10.720   0.000   0.000
0.04625   0.00325   297.562   1137.797   268.000   268.000   10.720   10.720   0.000   0.000
0.04875   0.00325   298.954   1137.797   268.000   268.000   10.720   0.000   0.000   16.280
0.00125   0.00275   293.001   1137.797   268.000   268.000   0.000   10.720   0.000   0.000
0.00375   0.00275   293.002   1137.797   268.000   268.000   10.720   10.720   0.000   0.000
0.00625   0.00275   293.003   1137.797   268.000   268.000   10.720   10.720   0.000   0.000
0.00875   0.00275   293.006   1137.797   268.000   268.000   10.720   10.720   0.000   0.000
0.01125   0.00275   293.011   1137.797   268.000   268.000   10.720   10.720   0.000   0.000
0.01375   0.00275   293.019   1137.797   268.000   268.000   10.720   10.720   0.000   0.000
0.01625   0.00275   293.034   1137.797   268.000   268.000   10.720   10.720   0.000   0.000
0.01875   0.00275   293.059   1137.797   268.000   268.000   10.720   10.720   0.000   0.000
0.02125   0.00275   293.099   1137.797   268.000   268.000   10.720   10.720   0.000   0.000
0.02375   0.00275   293.162   1137.797   268.000   268.000   10.720   10.720   0.000   0.000
0.02625   0.00275   293.258   1137.797   268.000   268.000   10.720   10.720   0.000   0.000
0.02875   0.00275   293.401   1137.797   268.000   268.000   10.720   10.720   0.000   0.000
0.03125   0.00275   293.608   1137.797   268.000   268.000   10.720   10.720   0.000   0.000
0.03375   0.00275   293.899   1137.797   268.000   268.000   10.720   10.720   0.000   0.000
0.03625   0.00275   294.299   1137.797   268.000   268.000   10.720   10.720   0.000   0.000
0.03875   0.00275   294.836   1137.797   268.000   268.000   10.720   10.720   0.000   0.000
0.04125   0.00275   295.540   1137.797   268.000   268.000   10.720   10.720   0.000   0.000
0.04375   0.00275   296.439   1137.797   268.000   268.000   10.720   10.720   0.000   0.000
0.04625   0.00275   297.564   1137.797   268.000   268.000   10.720   10.720   0.000   0.000
0.04875   0.00275   298.939   1137.797   268.000   268.000   10.720   0.000   0.000   16.280
0.00125   0.00225   293.001   1137.797   268.000   268.000   0.000   10.720   0.000   0.000
0.00375   0.00225   293.002   1137.797   268.000   268.000   10.720   10.720   0.000   0.000
0.00625   0.00225   293.003   1137.797   268.000   268.000   10.720   10.720   0.000   0.000
0.00875   0.00225   293.006   1137.797   268.000   268.000   10.720   10.720   0.000   0.000
0.01125   0.00225   293.011   1137.797   268.000   268.000   10.720   10.720   0.000   0.000
0.01375   0.00225   293.019   1137.797   268.000   268.000   10.720   10.720   0.000   0.000
0.01625   0.00225   293.034   1137.797   268.000   268.000   10.720   10.720   0.000   0.000
0.01875   0.00225   293.059   1137.797   268.000   268.000   10.720   10.720   0.000   0.000
0.02125   0.00225   293.099   1137.797   268.000   268.000   10.720   10.720   0.000   0.000
0.02375   0.00225   293.162   1137.797   268.000   268.000   10.720   10.720   0.000   0.000
0.02625   0.00225   293.258   1137.797   268.000   268.000   10.720   10.720   0.000   0.000
0.02875   0.00225   293.401   1137.797   268.000   268.000   10.720   10.720   0.000   0.000
0.03125   0.00225   293.608   1137.797   268.000   268.000   10.720   10.720   0.000   0.000
0.03375   0.00225   293.900   1137.797   268.000   268.000   10.720   10.720   0.000   0.000
0.03625   0.00225   294.301   1137.797   268.000   268.000   10.720   10.720   0.000   0.000
0.03875   0.00225   294.838   1137.797   268.000   268.000   10.720   10.720   0.000   0.000
0.04125   0.00225   295.543   1137.797   268.000   268.000   10.720   10.720   0.000   0.000
0.04375   0.00225   296.443   1137.797   268.000   268.000   10.720   10.720   0.000   0.000
0.04625   0.00225   297.566   1137.797   268.000   268.000   10.720   10.720   0.000   0.000
0.04875   0.00225   298.927   1137.797   268.000   268.000   10.720   0.000   0.000   16.280
0.00125   0.00175   293.001   1137.797   268.000   268.000   0.000   10.720   0.000   0.000
0.00375   0.00175   293.002   1137.797   268.000   268.000   10.720   10.720   0.000   0.000
0.00625   0.00175   293.003   1137.797   268.000   268.000   10.720   10.720   0.000   0.000
0.00875   0.00175   293.006   1137.797   268.000   268.000   10.720   10.720   0.000   0.000
0.01125   0.00175   293.011   1137.797   268.000   268.000   10.720   10.720   0.000   0.000
0.01375   0.00175   293.020   1137.797   268.000   268.000   10.720   10.720   0.000   0.000
0.01625   0.00175   293.034   1137.797   268.000   268.000   10.720   10.720   0.000   0.000
0.01875   0.00175   293.059   1137.797   268.000   268.000   10.720   10.720   0.000   0.000
0.02125   0.00175   293.099   1137.797   268.000   268.000   10.720   10.720   0.000   0.000