VARIABLES = X, Y, T, ap,an,as,aw,ae,sp,su
ZONE I=20,J=20, F=POINT,t="24.992"
0.00125   0.00975   298.612   1137.797   0.000   268.000   0.000   10.720   0.000   -0.004
0.00375   0.00975   298.857   1137.797   0.000   268.000   10.720   10.720   0.000   -0.004
0.00625   0.00975   299.352   1137.797   0.000   268.000   10.720   10.720   0.000   -0.005
0.00875   0.00975   300.105   1137.797   0.000   268.000   10.720   10.720   0.000   -0.005
0.01125   0.00975   301.132   1137.797   0.000   268.000   10.720   10.720   0.000   -0.006
0.01375   0.00975   302.450   1137.797   0.000   268.000   10.720   10.720   0.000   -0.007
0.01625   0.00975   304.080   1137.797   0.000   268.000   10.720   10.720   0.000   -0.008
0.01875   0.00975   306.050   1137.797   0.000   268.000   10.720   10.720   0.000   -0.010
0.02125   0.00975   308.387   1137.797   0.000   268.000   10.720   10.720   0.000   -0.012
0.02375   0.00975   311.125   1137.797   0.000   268.000   10.720   10.720   0.000   -0.014
0.02625   0.00975   314.305   1137.797   0.000   268.000   10.720   10.720   0.000   -0.016
0.02875   0.00975   318.010   1137.797   0.000   268.000   10.720   10.720   0.000   -0.019
0.03125   0.00975   322.655   1137.797   0.000   268.000   10.720   10.720   0.000   81.053
0.03375   0.00975   326.460   1137.797   0.000   268.000   10.720   10.720   0.000   80.991
0.03625   0.00975   329.840   1137.797   0.000   268.000   10.720   10.720   0.000   80.934
0.03875   0.00975   332.872   1137.797   0.000   268.000   10.720   10.720   0.000   80.882
0.04125   0.00975   335.592   1137.797   0.000   268.000   10.720   10.720   0.000   80.834
0.04375   0.00975   338.020   1137.797   0.000   268.000   10.720   10.720   0.000   80.790
0.04625   0.00975   340.170   1137.797   0.000   268.000   10.720   10.720   0.000   80.750
0.04875   0.00975   342.029   1137.797   0.000   268.000   10.720   0.000   0.000   96.866
0.00125   0.00925   298.610   1137.797   268.000   268.000   0.000   10.720   0.000   0.000
0.00375   0.00925   298.855   1137.797   268.000   268.000   10.720   10.720   0.000   0.000
0.00625   0.00925   299.350   1137.797   268.000   268.000   10.720   10.720   0.000   0.000
0.00875   0.00925   300.104   1137.797   268.000   268.000   10.720   10.720   0.000   0.000
0.01125   0.00925   301.130   1137.797   268.000   268.000   10.720   10.720   0.000   0.000
0.01375   0.00925   302.448   1137.797   268.000   268.000   10.720   10.720   0.000   0.000
0.01625   0.00925   304.078   1137.797   268.000   268.000   10.720   10.720   0.000   0.000
0.01875   0.00925   306.047   1137.797   268.000   268.000   10.720   10.720   0.000   0.000
0.02125   0.00925   308.384   1137.797   268.000   268.000   10.720   10.720   0.000   0.000
0.02375   0.00925   311.121   1137.797   268.000   268.000   10.720   10.720   0.000   0.000
0.02625   0.00925   314.299   1137.797   268.000   268.000   10.720   10.720   0.000   0.000
0.02875   0.00925   317.989   1137.797   268.000   268.000   10.720   10.720   0.000   0.000
0.03125   0.00925   322.403   1137.797   268.000   268.000   10.720   10.720   0.000   0.000
0.03375   0.00925   326.193   1137.797   268.000   268.000   10.720   10.720   0.000   0.000
0.03625   0.00925   329.570   1137.797   268.000   268.000   10.720   10.720   0.000   0.000
0.03875   0.00925   332.602   1137.797   268.000   268.000   10.720   10.720   0.000   0.000
0.04125   0.00925   335.322   1137.797   268.000   268.000   10.720   10.720   0.000   0.000
0.04375   0.00925   337.751   1137.797   268.000   268.000   10.720   10.720   0.000   0.000
0.04625   0.00925   339.901   1137.797   268.000   268.000   10.720   10.720   0.000   0.000
0.04875   0.00925   341.762   1137.797   268.000   268.000   10.720   0.000   0.000   16.151
0.00125   0.00875   298.608   1137.797   268.000   268.000   0.000   10.720   0.000   0.000
0.00375   0.00875   298.853   1137.797   268.000   268.000   10.720   10.720   0.000   0.000
0.00625   0.00875   299.347   1137.797   268.000   268.000   10.720   10.720   0.000   0.000
0.00875   0.00875   300.101   1137.797   268.000   268.000   10.720   10.720   0.000   0.000
0.01125   0.00875   301.127   1137.797   268.000   268.000   10.720   10.720   0.000   0.000
0.01375   0.00875   302.444   1137.797   268.000   268.000   10.720   10.720   0.000   0.000
0.01625   0.00875   304.074   1137.797   268.000   268.000   10.720   10.720   0.000   0.000
0.01875   0.00875   306.042   1137.797   268.000   268.000   10.720   10.720   0.000   0.000
0.02125   0.00875   308.378   1137.797   268.000   268.000   10.720   10.720   0.000   0.000
0.02375   0.00875   311.114   1137.797   268.000   268.000   10.720   10.720   0.000   0.000
0.02625   0.00875   314.288   1137.797   268.000   268.000   10.720   10.720   0.000   0.000
0.02875   0.00875   317.954   1137.797   268.000   268.000   10.720   10.720   0.000   0.000
0.03125   0.00875   322.192   1137.797   268.000   268.000   10.720   10.720   0.000   0.000
0.03375   0.00875   325.959   1137.797   268.000   268.000   10.720   10.720   0.000   0.000
0.03625   0.00875   329.333   1137.797   268.000   268.000   10.720   10.720   0.000   0.000
0.03875   0.00875   332.364   1137.797   268.000   268.000   10.720   10.720   0.000   0.000
0.04125   0.00875   335.083   1137.797   268.000   268.000   10.720   10.720   0.000   0.000
0.04375   0.00875   337.512   1137.797   268.000   268.000   10.720   10.720   0.000   0.000
0.04625   0.00875   339.665   1137.797   268.000   268.000   10.720   10.720   0.000   0.000
0.04875   0.00875   341.531   1137.797   268.000   268.000   10.720   0.000   0.000   16.152
0.00125   0.00825   298.604   1137.797   268.000   268.000   0.000   10.720   0.000   0.000
0.00375   0.00825   298.848   1137.797   268.000   268.000   10.720   10.720   0.000   0.000
0.00625   0.00825   299.343   1137.797   268.000   268.000   10.720   10.720   0.000   0.000
0.00875   0.00825   300.096   1137.797   268.000   268.000   10.720   10.720   0.000   0.000
0.01125   0.00825   301.121   1137.797   268.000   268.000   10.720   10.720   0.000   0.000
0.01375   0.00825   302.438   1137.797   268.000   268.000   10.720   10.720   0.000   0.000
0.01625   0.00825   304.067   1137.797   268.000   268.000   10.720   10.720   0.000   0.000
0.01875   0.00825   306.034   1137.797   268.000   268.000   10.720   10.720   0.000   0.000
0.02125   0.00825   308.369   1137.797   268.000   268.000   10.720   10.720   0.000   0.000
0.02375   0.00825   311.103   1137.797   268.000   268.000   10.720   10.720   0.000   0.000
0.02625   0.00825   314.272   1137.797   268.000   268.000   10.720   10.720   0.000   0.000
0.02875   0.00825   317.912   1137.797   268.000   268.000   10.720   10.720   0.000   0.000
0.03125   0.00825   322.018   1137.797   268.000   268.000   10.720   10.720   0.000   0.000
0.03375   0.00825   325.760   1137.797   268.000   268.000   10.720   10.720   0.000   0.000
0.03625   0.00825   329.128   1137.797   268.000   268.000   10.720   10.720   0.000   0.000
0.03875   0.00825   332.158   1137.797   268.000   268.000   10.720   10.720   0.000   0.000
0.04125   0.00825   334.876   1137.797   268.000   268.000   10.720   10.720   0.000   0.000
0.04375   0.00825   337.305   1137.797   268.000   268.000   10.720   10.720   0.000   0.000
0.04625   0.00825   339.460   1137.797   268.000   268.000   10.720   10.720   0.000   0.000
0.04875   0.00825   341.335   1137.797   268.000   268.000   10.720   0.000   0.000   16.153
0.00125   0.00775   298.598   1137.797   268.000   268.000   0.000   10.720   0.000   0.000
0.00375   0.00775   298.843   1137.797   268.000   268.000   10.720   10.720   0.000   0.000
0.00625   0.00775   299.337   1137.797   268.000   268.000   10.720   10.720   0.000   0.000
0.00875   0.00775   300.089   1137.797   268.000   268.000   10.720   10.720   0.000   0.000
0.01125   0.00775   301.114   1137.797   268.000   268.000   10.720   10.720   0.000   0.000
0.01375   0.00775   302.430   1137.797   268.000   268.000   10.720   10.720   0.000   0.000
0.01625   0.00775   304.058   1137.797   268.000   268.000   10.720   10.720   0.000   0.000
0.01875   0.00775   306.024   1137.797   268.000   268.000   10.720   10.720   0.000   0.000
0.02125   0.00775   308.357   1137.797   268.000   268.000   10.720   10.720   0.000   0.000
0.02375   0.00775   311.089   1137.797   268.000   268.000   10.720   10.720   0.000   0.000
0.02625   0.00775   314.251   1137.797   268.000   268.000   10.720   10.720   0.000   0.000
0.02875   0.00775   317.868   1137.797   268.000   268.000   10.720   10.720   0.000   0.000
0.03125   0.00775   321.875   1137.797   268.000   268.000   10.720   10.720   0.000   0.000
0.03375   0.00775   325.593   1137.797   268.000   268.000   10.720   10.720   0.000   0.000
0.03625   0.00775   328.956   1137.797   268.000   268.000   10.720   10.720   0.000   0.000
0.03875   0.00775   331.983   1137.797   268.000   268.000   10.720   10.720   0.000   0.000
0.04125   0.00775   334.700   1137.797   268.000   268.000   10.720   10.720   0.000   0.000
0.04375   0.00775   337.129   1137.797   268.000   268.000   10.720   10.720   0.000   0.000
0.04625   0.00775   339.287   1137.797   268.000   268.000   10.720   10.720   0.000   0.000
0.04875   0.00775   341.174   1137.797   268.000   268.000   10.720   0.000   0.000   16.153
0.00125   0.00725   298.591   1137.797   268.000   268.000   0.000   10.720   0.000   0.000
0.00375   0.00725   298.836   1137.797   268.000   268.000   10.720   10.720   0.000   0.000
0.00625   0.00725   299.329   1137.797   268.000   268.000   10.720   10.720   0.000   0.000
0.00875   0.00725   300.081   1137.797   268.000   268.000   10.720   10.720   0.000   0.000
0.01125   0.00725   301.105   1137.797   268.000   268.000   10.720   10.720   0.000   0.000
0.01375   0.00725   302.420   1137.797   268.000   268.000   10.720   10.720   0.000   0.000
0.01625   0.00725   304.046   1137.797   268.000   268.000   10.720   10.720   0.000   0.000
0.01875   0.00725   306.011   1137.797   268.000   268.000   10.720   10.720   0.000   0.000
0.02125   0.00725   308.342   1137.797   268.000   268.000   10.720   10.720   0.000   0.000
0.02375   0.00725   311.072   1137.797   268.000   268.000   10.720   10.720   0.000   0.000
0.02625   0.00725   314.228   1137.797   268.000   268.000   10.720   10.720   0.000   0.000
0.02875   0.00725   317.824   1137.797   268.000   268.000   10.720   10.720   0.000   0.000
0.03125   0.00725   321.761   1137.797   268.000   268.000   10.720   10.720   0.000   0.000
0.03375   0.00725   325.458   1137.797   268.000   268.000   10.720   10.720   0.000   0.000
0.03625   0.00725   328.815   1137.797   268.000   268.000   10.720   10.720   0.000   0.000
0.03875   0.00725   331.840   1137.797   268.000   268.000   10.720   10.720   0.000   0.000
0.04125   0.00725   334.556   1137.797   268.000   268.000   10.720   10.720   0.000   0.000
0.04375   0.00725   336.985   1137.797   268.000   268.000   10.720   10.720   0.000   0.000
0.04625   0.00725   339.146   1137.797   268.000   268.000   10.720   10.720   0.000   0.000
0.04875   0.00725   341.050   1137.797   268.000   268.000   10.720   0.000   0.000   16.154
0.00125   0.00675   298.583   1137.797   268.000   268.000   0.000   10.720   0.000   0.000
0.00375   0.00675   298.827   1137.797   268.000   268.000   10.720   10.720   0.000   0.000
0.00625   0.00675   299.320   1137.797   268.000   268.000   10.720   10.720   0.000   0.000
0.00875   0.00675   300.072   1137.797   268.000   268.000   10.720   10.720   0.000   0.000
0.01125   0.00675   301.095   1137.797   268.000   268.000   10.720   10.720   0.000   0.000
0.01375   0.00675   302.408   1137.797   268.000   268.000   10.720   10.720   0.000   0.000
0.01625   0.00675   304.033   1137.797   268.000   268.000   10.720   10.720   0.000   0.000
0.01875   0.00675   305.996   1137.797   268.000   268.000   10.720   10.720   0.000   0.000
0.02125   0.00675   308.325   1137.797   268.000   268.000   10.720   10.720   0.000   0.000
0.02375   0.00675   311.051   1137.797   268.000   268.000   10.720   10.720   0.000   0.000
0.02625   0.00675   314.202   1137.797   268.000   268.000   10.720   10.720   0.000   0.000
0.02875   0.00675   317.782   1137.797   268.000   268.000   10.720   10.720   0.000   0.000
0.03125   0.00675   321.672   1137.797   268.000   268.000   10.720   10.720   0.000   0.000
0.03375   0.00675   325.354   1137.797   268.000   268.000   10.720   10.720   0.000   0.000
0.03625   0.00675   328.706   1137.797   268.000   268.000   10.720   10.720   0.000   0.000
0.03875   0.00675   331.729   1137.797   268.000   268.000   10.720   10.720   0.000   0.000
0.04125   0.00675   334.443   1137.797   268.000   268.000   10.720   10.720   0.000   0.000
0.04375   0.00675   336.871   1137.797   268.000   268.000   10.720   10.720   0.000   0.000
0.04625   0.00675   339.036   1137.797   268.000   268.000   10.720   10.720   0.000   0.000
0.04875   0.00675   340.962   1137.797   268.000   268.000   10.720   0.000   0.000   16.154
0.00125   0.00625   298.574   1137.797   268.000   2.085   0.000   10.720   0.000   0.000
0.00375   0.00625   298.818   1137.797   268.000   2.085   10.720   10.720   0.000   0.000
0.00625   0.00625   299.310   1137.797   268.000   2.085   10.720   10.720   0.000   0.000
0.00875   0.00625   300.060   1137.797   268.000   2.085   10.720   10.720   0.000   0.000
0.01125   0.00625   301.082   1137.797   268.000   2.085   10.720   10.720   0.000   0.000
0.01375   0.00625   302.394   1137.797   268.000   2.085   10.720   10.720   0.000   0.000
0.01625   0.00625   304.017   1137.797   268.000   2.085   10.720   10.720   0.000   0.000
0.01875   0.00625   305.978   1137.797   268.000   2.085   10.720   10.720   0.000   0.000
0.02125   0.00625   308.304   1137.797   268.000   2.085   10.720   10.720   0.000   0.000
0.02375   0.00625   311.027   1137.797   268.000   2.085   10.720   10.720   0.000   0.000
0.02625   0.00625   314.174   1137.797   268.000   2.085   10.720   10.720   0.000   0.000
0.02875   0.00625   317.744   1137.797   268.000   2.085   10.720   10.720   0.000   0.000
0.03125   0.00625   321.609   1137.797   268.000   2.085   10.720   10.720   0.000   0.000
0.03375   0.00625   325.281   1137.797   268.000   2.085   10.720   10.720   0.000   0.000
0.03625   0.00625   328.629   1137.797   268.000   2.085   10.720   10.720   0.000   0.000
0.03875   0.00625   331.649   1137.797   268.000   2.085   10.720   10.720   0.000   0.000
0.04125   0.00625   334.361   1137.797   268.000   2.085   10.720   10.720   0.000   0.000
0.04375   0.00625   336.788   1137.797   268.000   2.085   10.720   10.720   0.000   0.000
0.04625   0.00625   338.956   1137.797   268.000   2.085   10.720   10.720   0.000   0.000
0.04875   0.00625   340.912   1137.797   268.000   2.085   10.720   0.000   0.000   16.154
0.00125   0.00575   297.177   686.719   2.085   1.046   0.000   0.042   0.000   0.000
0.00375   0.00575   297.377   686.719   2.085   1.046   0.042   0.042   0.000   0.000
0.00625   0.00575   297.781   686.719   2.085   1.046   0.042   0.042   0.000   0.000
0.00875   0.00575   298.399   686.719   2.085   1.046   0.042   0.042   0.000   0.000
0.01125   0.00575   299.243   686.719   2.085   1.046   0.042   0.042   0.000   0.000
0.01375   0.00575   300.332   686.719   2.085   1.046   0.042   0.042   0.000   0.000
0.01625   0.00575   301.686   686.719   2.085   1.046   0.042   0.042   0.000   0.000
0.01875   0.00575   303.331   686.719   2.085   1.046   0.042   0.042   0.000   0.000
0.02125   0.00575   305.294   686.719   2.085   1.046   0.042   0.042   0.000   0.000
0.02375   0.00575   307.606   686.719   2.085   1.046   0.042   0.042   0.000   0.000
0.02625   0.00575   310.293   686.719   2.085   1.046   0.042   0.042   0.000   0.000
0.02875   0.00575   313.355   686.719   2.085   1.046   0.042   0.042   0.000   0.000
0.03125   0.00575   316.681   686.719   2.085   1.046   0.042   0.042   0.000   0.000
0.03375   0.00575   319.864   686.719   2.085   1.046   0.042   0.042   0.000   0.000
0.03625   0.00575   322.790   686.719   2.085   1.046   0.042   0.042   0.000   0.000
0.03875   0.00575   325.455   686.719   2.085   1.046   0.042   0.042   0.000   0.000
0.04125   0.00575   327.883   686.719   2.085   1.046   0.042   0.042   0.000   0.000
0.04375   0.00575   330.110   686.719   2.085   1.046   0.042   0.042   0.000   0.000
0.04625   0.00575   332.402   686.719   2.085   1.046   0.042   0.042   0.000   0.000
0.04875   0.00575   339.435   686.719   2.085   1.046   0.042   0.000   0.000   6.060
0.00125   0.00525   295.460   686.719   1.046   1.046   0.000   0.042   0.000   0.000
0.00375   0.00525   295.595   686.719   1.046   1.046   0.042   0.042   0.000   0.000
0.00625   0.00525   295.868   686.719   1.046   1.046   0.042   0.042   0.000   0.000
0.00875   0.00525   296.287   686.719   1.046   1.046   0.042   0.042   0.000   0.000
0.01125   0.00525   296.863   686.719   1.046   1.046   0.042   0.042   0.000   0.000
0.01375   0.00525   297.610   686.719   1.046   1.046   0.042   0.042   0.000   0.000
0.01625   0.00525   298.548   686.719   1.046   1.046   0.042   0.042   0.000   0.000
0.01875   0.00525   299.696   686.719   1.046   1.046   0.042   0.042   0.000   0.000
0.02125   0.00525   301.079   686.719   1.046   1.046   0.042   0.042   0.000   0.000
0.02375   0.00525   302.724   686.719   1.046   1.046   0.042   0.042   0.000   0.000
0.02625   0.00525   304.651   686.719   1.046   1.046   0.042   0.042   0.000   0.000
0.02875   0.00525   306.867   686.719   1.046   1.046   0.042   0.042   0.000   0.000
0.03125   0.00525   309.290   686.719   1.046   1.046   0.042   0.042   0.000   0.000
0.03375   0.00525   311.652   686.719   1.046   1.046   0.042   0.042   0.000   0.000
0.03625   0.00525   313.873   686.719   1.046   1.046   0.042   0.042   0.000   0.000
0.03875   0.00525   315.953   686.719   1.046   1.046   0.042   0.042   0.000   0.000
0.04125   0.00525   317.915   686.719   1.046   1.046   0.042   0.042   0.000   0.000
0.04375   0.00525   319.813   686.719   1.046   1.046   0.042   0.042   0.000   0.000
0.04625   0.00525   322.223   686.719   1.046   1.046   0.042   0.042   0.000   0.000
0.04875   0.00525   334.081   686.719   1.046   1.046   0.042   0.000   0.000   6.067
0.00125   0.00475   294.476   686.719   1.046   1.046   0.000   0.042   0.000   0.000
0.00375   0.00475   294.565   686.719   1.046   1.046   0.042   0.042   0.000   0.000
0.00625   0.00475   294.745   686.719   1.046   1.046   0.042   0.042   0.000   0.000
0.00875   0.00475   295.022   686.719   1.046   1.046   0.042   0.042   0.000   0.000
0.01125   0.00475   295.405   686.719   1.046   1.046   0.042   0.042   0.000   0.000
0.01375   0.00475   295.904   686.719   1.046   1.046   0.042   0.042   0.000   0.000
0.01625   0.00475   296.533   686.719   1.046   1.046   0.042   0.042   0.000   0.000
0.01875   0.00475   297.308   686.719   1.046   1.046   0.042   0.042   0.000   0.000
0.02125   0.00475   298.246   686.719   1.046   1.046   0.042   0.042   0.000   0.000
0.02375   0.00475   299.365   686.719   1.046   1.046   0.042   0.042   0.000   0.000
0.02625   0.00475   300.685   686.719   1.046   1.046   0.042   0.042   0.000   0.000
0.02875   0.00475   302.209   686.719   1.046   1.046   0.042   0.042   0.000   0.000
0.03125   0.00475   303.892   686.719   1.046   1.046   0.042   0.042   0.000   0.000
0.03375   0.00475   305.583   686.719   1.046   1.046   0.042   0.042   0.000   0.000
0.03625   0.00475   307.234   686.719   1.046   1.046   0.042   0.042   0.000   0.000
0.03875   0.00475   308.850   686.719   1.046   1.046   0.042   0.042   0.000   0.000
0.04125   0.00475   310.448   686.719   1.046   1.046   0.042   0.042   0.000   0.000
0.04375   0.00475   312.078   686.719   1.046   1.046   0.042   0.042   0.000   0.000
0.04625   0.00475   314.313   686.719   1.046   1.046   0.042   0.042   0.000   0.000
0.04875   0.00475   326.092   686.719   1.046   1.046   0.042   0.000   0.000   6.077
0.00125   0.00425   293.989   686.719   1.046   2.085   0.000   0.042   0.000   0.000
0.00375   0.00425   294.048   686.719   1.046   2.085   0.042   0.042   0.000   0.000
0.00625   0.00425   294.166   686.719   1.046   2.085   0.042   0.042   0.000   0.000
0.00875   0.00425   294.348   686.719   1.046   2.085   0.042   0.042   0.000   0.000
0.01125   0.00425   294.599   686.719   1.046   2.085   0.042   0.042   0.000   0.000
0.01375   0.00425   294.924   686.719   1.046   2.085   0.042   0.042   0.000   0.000
0.01625   0.00425   295.332   686.719   1.046   2.085   0.042   0.042   0.000   0.000
0.01875   0.00425   295.831   686.719   1.046   2.085   0.042   0.042   0.000   0.000
0.02125   0.00425   296.432   686.719   1.046   2.085   0.042   0.042   0.000   0.000
0.02375   0.00425   297.145   686.719   1.046   2.085   0.042   0.042   0.000   0.000
0.02625   0.00425   297.979   686.719   1.046   2.085   0.042   0.042   0.000   0.000
0.02875   0.00425   298.940   686.719   1.046   2.085   0.042   0.042   0.000   0.000
0.03125   0.00425   300.016   686.719   1.046   2.085   0.042   0.042   0.000   0.000
0.03375   0.00425   301.158   686.719   1.046   2.085   0.042   0.042   0.000   0.000
0.03625   0.00425   302.354   686.719   1.046   2.085   0.042   0.042   0.000   0.000
0.03875   0.00425   303.608   686.719   1.046   2.085   0.042   0.042   0.000   0.000
0.04125   0.00425   304.929   686.719   1.046   2.085   0.042   0.042   0.000   0.000
0.04375   0.00425   306.341   686.719   1.046   2.085   0.042   0.042   0.000   0.000
0.04625   0.00425   308.098   686.719   1.046   2.085   0.042   0.042   0.000   0.000
0.04875   0.00425   314.880   686.719   1.046   2.085   0.042   0.000   0.000   6.089
0.00125   0.00375   293.921   1137.797   2.085   268.000   0.000   10.720   0.000   0.000
0.00375   0.00375   293.969   1137.797   2.085   268.000   10.720   10.720   0.000   0.000
0.00625   0.00375   294.067   1137.797   2.085   268.000   10.720   10.720   0.000   0.000
0.00875   0.00375   294.217   1137.797   2.085   268.000   10.720   10.720   0.000   0.000
0.01125   0.00375   294.422   1137.797   2.085   268.000   10.720   10.720   0.000   0.000
0.01375   0.00375   294.685   1137.797   2.085   268.000   10.720   10.720   0.000   0.000
0.01625   0.00375   295.012   1137.797   2.085   268.000   10.720   10.720   0.000   0.000
0.01875   0.00375   295.407   1137.797   2.085   268.000   10.720   10.720   0.000   0.000
0.02125   0.00375   295.876   1137.797   2.085   268.000   10.720   10.720   0.000   0.000
0.02375   0.00375   296.424   1137.797   2.085   268.000   10.720   10.720   0.000   0.000
0.02625   0.00375   297.056   1137.797   2.085   268.000   10.720   10.720   0.000   0.000
0.02875   0.00375   297.778   1137.797   2.085   268.000   10.720   10.720   0.000   0.000
0.03125   0.00375   298.591   1137.797   2.085   268.000   10.720   10.720   0.000   0.000
0.03375   0.00375   299.499   1137.797   2.085   268.000   10.720   10.720   0.000   0.000
0.03625   0.00375   300.505   1137.797   2.085   268.000   10.720   10.720   0.000   0.000
0.03875   0.00375   301.611   1137.797   2.085   268.000   10.720   10.720   0.000   0.000
0.04125   0.00375   302.821   1137.797   2.085   268.000   10.720   10.720   0.000   0.000
0.04375   0.00375   304.141   1137.797   2.085   268.000   10.720   10.720   0.000   0.000
0.04625   0.00375   305.582   1137.797   2.085   268.000   10.720   10.720   0.000   0.000
0.04875   0.00375   307.183   1137.797   2.085   268.000   10.720   0.000   0.000   16.259
0.00125   0.00325   293.920   1137.797   268.000   268.000   0.000   10.720   0.000   0.000
0.00375   0.00325   293.969   1137.797   268.000   268.000   10.720   10.720   0.000   0.000
0.00625   0.00325   294.067   1137.797   268.000   268.000   10.720   10.720   0.000   0.000
0.00875   0.00325   294.216   1137.797   268.000   268.000   10.720   10.720   0.000   0.000
0.01125   0.00325   294.421   1137.797   268.000   268.000   10.720   10.720   0.000   0.000
0.01375   0.00325   294.684   1137.797   268.000   268.000   10.720   10.720   0.000   0.000
0.01625   0.00325   295.010   1137.797   268.000   268.000   10.720   10.720   0.000   0.000
0.01875   0.00325   295.404   1137.797   268.000   268.000   10.720   10.720   0.000   0.000
0.02125   0.00325   295.872   1137.797   268.000   268.000   10.720   10.720   0.000   0.000
0.02375   0.00325   296.419   1137.797   268.000   268.000   10.720   10.720   0.000   0.000
0.02625   0.00325   297.050   1137.797   268.000   268.000   10.720   10.720   0.000   0.000
0.02875   0.00325   297.770   1137.797   268.000   268.000   10.720   10.720   0.000   0.000
0.03125   0.00325   298.582   1137.797   268.000   268.000   10.720   10.720   0.000   0.000
0.03375   0.00325   299.488   1137.797   268.000   268.000   10.720   10.720   0.000   0.000
0.03625   0.00325   300.492   1137.797   268.000   268.000   10.720   10.720   0.000   0.000
0.03875   0.00325   301.597   1137.797   268.000   268.000   10.720   10.720   0.000   0.000
0.04125   0.00325   302.807   1137.797   268.000   268.000   10.720   10.720   0.000   0.000
0.04375   0.00325   304.126   1137.797   268.000   268.000   10.720   10.720   0.000   0.000
0.04625   0.00325   305.563   1137.797   268.000   268.000   10.720   10.720   0.000   0.000
0.04875   0.00325   307.133   1137.797   268.000   268.000   10.720   0.000   0.000   16.259
0.00125   0.00275   293.920   1137.797   268.000   268.000   0.000   10.720   0.000   0.000
0.00375   0.00275   293.968   1137.797   268.000   268.000   10.720   10.720   0.000   0.000
0.00625   0.00275   294.066   1137.797   268.000   268.000   10.720   10.720   0.000   0.000
0.00875   0.00275   294.216   1137.797   268.000   268.000   10.720   10.720   0.000   0.000
0.01125   0.00275   294.420   1137.797   268.000   268.000   10.720   10.720   0.000   0.000
0.01375   0.00275   294.682   1137.797   268.000   268.000   10.720   10.720   0.000   0.000
0.01625   0.00275   295.008   1137.797   268.000   268.000   10.720   10.720   0.000   0.000
0.01875   0.00275   295.401   1137.797   268.000   268.000   10.720   10.720   0.000   0.000
0.02125   0.00275   295.869   1137.797   268.000   268.000   10.720   10.720   0.000   0.000
0.02375   0.00275   296.415   1137.797   268.000   268.000   10.720   10.720   0.000   0.000
0.02625   0.00275   297.045   1137.797   268.000   268.000   10.720   10.720   0.000   0.000
0.02875   0.00275   297.763   1137.797   268.000   268.000   10.720   10.720   0.000   0.000
0.03125   0.00275   298.574   1137.797   268.000   268.000   10.720   10.720   0.000   0.000
0.03375   0.00275   299.479   1137.797   268.000   268.000   10.720   10.720   0.000   0.000
0.03625   0.00275   300.481   1137.797   268.000   268.000   10.720   10.720   0.000   0.000
0.03875   0.00275   301.585   1137.797   268.000   268.000   10.720   10.720   0.000   0.000
0.04125   0.00275   302.795   1137.797   268.000   268.000   10.720   10.720   0.000   0.000
0.04375   0.00275   304.113   1137.797   268.000   268.000   10.720   10.720   0.000   0.000
0.04625   0.00275   305.545   1137.797   268.000   268.000   10.720   10.720   0.000   0.000
0.04875   0.00275   307.092   1137.797   268.000   268.000   10.720   0.000   0.000   16.259
0.00125   0.00225   293.919   1137.797   268.000   268.000   0.000   10.720   0.000   0.000
0.00375   0.00225   293.968   1137.797   268.000   268.000   10.720   10.720   0.000   0.000
0.00625   0.00225   294.066   1137.797   268.000   268.000   10.720   10.720   0.000   0.000
0.00875   0.00225   294.215   1137.797   268.000   268.000   10.720   10.720   0.000   0.000
0.01125   0.00225   294.419   1137.797   268.000   268.000   10.720   10.720   0.000   0.000
0.01375   0.00225   294.681   1137.797   268.000   268.000   10.720   10.720   0.000   0.000
0.01625   0.00225   295.006   1137.797   268.000   268.000   10.720   10.720   0.000   0.000
0.01875   0.00225   295.399   1137.797   268.000   268.000   10.720   10.720   0.000   0.000
0.02125   0.00225   295.866   1137.797   268.000   268.000   10.720   10.720   0.000   0.000
0.02375   0.00225   296.411   1137.797   268.000   268.000   10.720   10.720   0.000   0.000
0.02625   0.00225   297.040   1137.797   268.000   268.000   10.720   10.720   0.000   0.000
0.02875   0.00225   297.758   1137.797   268.000   268.000   10.720   10.720   0.000   0.000
0.03125   0.00225   298.567   1137.797   268.000   268.000   10.720   10.720   0.000   0.000
0.03375   0.00225   299.471   1137.797   268.000   268.000   10.720   10.720   0.000   0.000
0.03625   0.00225   300.473   1137.797   268.000   268.000   10.720   10.720   0.000   0.000
0.03875   0.00225   301.576   1137.797   268.000   268.000   10.720   10.720   0.000   0.000
0.04125   0.00225   302.784   1137.797   268.000   268.000   10.720   10.720   0.000   0.000
0.04375   0.00225   304.101   1137.797   268.000   268.000   10.720   10.720   0.000   0.000
0.04625   0.00225   305.530   1137.797   268.000   268.000   10.720   10.720   0.000   0.000
0.04875   0.00225   307.059   1137.797   268.000   268.000   10.720   0.000   0.000   16.259
0.00125   0.00175   293.919   1137.797   268.000   268.000   0.000   10.720   0.000   0.000
0.00375   0.00175   293.968   1137.797   268.000   268.000   10.720   10.720   0.000   0.000
0.00625   0.00175   294.065   1137.797   268.000   268.000   10.720   10.720   0.000   0.000
0.00875   0.00175   294.214   1137.797   268.000   268.000   10.720   10.720   0.000   0.000
0.01125   0.00175   294.418   1137.797   268.000   268.000   10.720   10.720   0.000   0.000
0.01375   0.00175   294.680   1137.797   268.000   268.000   10.720   10.720   0.000   0.000
0.01625   0.00175   295.005   1137.797   268.000   268.000   10.720   10.720   0.000   0.000
0.01875   0.00175   295.398   1137.797   268.000   268.000   10.720   10.720   0.000   0.000
0.02125   0.00175   295.864   1137.797   268.000   268.000   10.720   10.720   0.000   0.000