VARIABLES = X, Y, T, ap,an,as,aw,ae,sp,su
ZONE I=20,J=20, F=POINT,t="6.260"
0.00125   0.00975   293.078   1137.797   0.000   268.000   0.000   10.720   0.000   -0.000
0.00375   0.00975   293.102   1137.797   0.000   268.000   10.720   10.720   0.000   -0.000
0.00625   0.00975   293.154   1137.797   0.000   268.000   10.720   10.720   0.000   -0.000
0.00875   0.00975   293.244   1137.797   0.000   268.000   10.720   10.720   0.000   -0.000
0.01125   0.00975   293.387   1137.797   0.000   268.000   10.720   10.720   0.000   -0.000
0.01375   0.00975   293.607   1137.797   0.000   268.000   10.720   10.720   0.000   -0.000
0.01625   0.00975   293.934   1137.797   0.000   268.000   10.720   10.720   0.000   -0.001
0.01875   0.00975   294.407   1137.797   0.000   268.000   10.720   10.720   0.000   -0.001
0.02125   0.00975   295.076   1137.797   0.000   268.000   10.720   10.720   0.000   -0.002
0.02375   0.00975   296.003   1137.797   0.000   268.000   10.720   10.720   0.000   -0.002
0.02625   0.00975   297.267   1137.797   0.000   268.000   10.720   10.720   0.000   -0.003
0.02875   0.00975   298.996   1137.797   0.000   268.000   10.720   10.720   0.000   -0.004
0.03125   0.00975   301.661   1137.797   0.000   268.000   10.720   10.720   0.000   81.358
0.03375   0.00975   303.535   1137.797   0.000   268.000   10.720   10.720   0.000   81.333
0.03625   0.00975   305.095   1137.797   0.000   268.000   10.720   10.720   0.000   81.312
0.03875   0.00975   306.483   1137.797   0.000   268.000   10.720   10.720   0.000   81.293
0.04125   0.00975   307.792   1137.797   0.000   268.000   10.720   10.720   0.000   81.275
0.04375   0.00975   309.101   1137.797   0.000   268.000   10.720   10.720   0.000   81.257
0.04625   0.00975   310.470   1137.797   0.000   268.000   10.720   10.720   0.000   81.237
0.04875   0.00975   311.925   1137.797   0.000   268.000   10.720   0.000   0.000   97.462
0.00125   0.00925   293.078   1137.797   268.000   268.000   0.000   10.720   0.000   0.000
0.00375   0.00925   293.102   1137.797   268.000   268.000   10.720   10.720   0.000   0.000
0.00625   0.00925   293.154   1137.797   268.000   268.000   10.720   10.720   0.000   0.000
0.00875   0.00925   293.244   1137.797   268.000   268.000   10.720   10.720   0.000   0.000
0.01125   0.00925   293.387   1137.797   268.000   268.000   10.720   10.720   0.000   0.000
0.01375   0.00925   293.607   1137.797   268.000   268.000   10.720   10.720   0.000   0.000
0.01625   0.00925   293.933   1137.797   268.000   268.000   10.720   10.720   0.000   0.000
0.01875   0.00925   294.406   1137.797   268.000   268.000   10.720   10.720   0.000   0.000
0.02125   0.00925   295.075   1137.797   268.000   268.000   10.720   10.720   0.000   0.000
0.02375   0.00925   296.001   1137.797   268.000   268.000   10.720   10.720   0.000   0.000
0.02625   0.00925   297.263   1137.797   268.000   268.000   10.720   10.720   0.000   0.000
0.02875   0.00925   298.977   1137.797   268.000   268.000   10.720   10.720   0.000   0.000
0.03125   0.00925   301.410   1137.797   268.000   268.000   10.720   10.720   0.000   0.000
0.03375   0.00925   303.268   1137.797   268.000   268.000   10.720   10.720   0.000   0.000
0.03625   0.00925   304.826   1137.797   268.000   268.000   10.720   10.720   0.000   0.000
0.03875   0.00925   306.213   1137.797   268.000   268.000   10.720   10.720   0.000   0.000
0.04125   0.00925   307.522   1137.797   268.000   268.000   10.720   10.720   0.000   0.000
0.04375   0.00925   308.831   1137.797   268.000   268.000   10.720   10.720   0.000   0.000
0.04625   0.00925   310.200   1137.797   268.000   268.000   10.720   10.720   0.000   0.000
0.04875   0.00925   311.658   1137.797   268.000   268.000   10.720   0.000   0.000   16.247
0.00125   0.00875   293.078   1137.797   268.000   268.000   0.000   10.720   0.000   0.000
0.00375   0.00875   293.102   1137.797   268.000   268.000   10.720   10.720   0.000   0.000
0.00625   0.00875   293.153   1137.797   268.000   268.000   10.720   10.720   0.000   0.000
0.00875   0.00875   293.243   1137.797   268.000   268.000   10.720   10.720   0.000   0.000
0.01125   0.00875   293.387   1137.797   268.000   268.000   10.720   10.720   0.000   0.000
0.01375   0.00875   293.606   1137.797   268.000   268.000   10.720   10.720   0.000   0.000
0.01625   0.00875   293.933   1137.797   268.000   268.000   10.720   10.720   0.000   0.000
0.01875   0.00875   294.405   1137.797   268.000   268.000   10.720   10.720   0.000   0.000
0.02125   0.00875   295.073   1137.797   268.000   268.000   10.720   10.720   0.000   0.000
0.02375   0.00875   295.998   1137.797   268.000   268.000   10.720   10.720   0.000   0.000
0.02625   0.00875   297.256   1137.797   268.000   268.000   10.720   10.720   0.000   0.000
0.02875   0.00875   298.946   1137.797   268.000   268.000   10.720   10.720   0.000   0.000
0.03125   0.00875   301.203   1137.797   268.000   268.000   10.720   10.720   0.000   0.000
0.03375   0.00875   303.038   1137.797   268.000   268.000   10.720   10.720   0.000   0.000
0.03625   0.00875   304.592   1137.797   268.000   268.000   10.720   10.720   0.000   0.000
0.03875   0.00875   305.978   1137.797   268.000   268.000   10.720   10.720   0.000   0.000
0.04125   0.00875   307.286   1137.797   268.000   268.000   10.720   10.720   0.000   0.000
0.04375   0.00875   308.595   1137.797   268.000   268.000   10.720   10.720   0.000   0.000
0.04625   0.00875   309.964   1137.797   268.000   268.000   10.720   10.720   0.000   0.000
0.04875   0.00875   311.426   1137.797   268.000   268.000   10.720   0.000   0.000   16.247
0.00125   0.00825   293.078   1137.797   268.000   268.000   0.000   10.720   0.000   0.000
0.00375   0.00825   293.102   1137.797   268.000   268.000   10.720   10.720   0.000   0.000
0.00625   0.00825   293.153   1137.797   268.000   268.000   10.720   10.720   0.000   0.000
0.00875   0.00825   293.243   1137.797   268.000   268.000   10.720   10.720   0.000   0.000
0.01125   0.00825   293.386   1137.797   268.000   268.000   10.720   10.720   0.000   0.000
0.01375   0.00825   293.606   1137.797   268.000   268.000   10.720   10.720   0.000   0.000
0.01625   0.00825   293.931   1137.797   268.000   268.000   10.720   10.720   0.000   0.000
0.01875   0.00825   294.403   1137.797   268.000   268.000   10.720   10.720   0.000   0.000
0.02125   0.00825   295.070   1137.797   268.000   268.000   10.720   10.720   0.000   0.000
0.02375   0.00825   295.994   1137.797   268.000   268.000   10.720   10.720   0.000   0.000
0.02625   0.00825   297.246   1137.797   268.000   268.000   10.720   10.720   0.000   0.000
0.02875   0.00825   298.911   1137.797   268.000   268.000   10.720   10.720   0.000   0.000
0.03125   0.00825   301.035   1137.797   268.000   268.000   10.720   10.720   0.000   0.000
0.03375   0.00825   302.844   1137.797   268.000   268.000   10.720   10.720   0.000   0.000
0.03625   0.00825   304.392   1137.797   268.000   268.000   10.720   10.720   0.000   0.000
0.03875   0.00825   305.776   1137.797   268.000   268.000   10.720   10.720   0.000   0.000
0.04125   0.00825   307.083   1137.797   268.000   268.000   10.720   10.720   0.000   0.000
0.04375   0.00825   308.391   1137.797   268.000   268.000   10.720   10.720   0.000   0.000
0.04625   0.00825   309.762   1137.797   268.000   268.000   10.720   10.720   0.000   0.000
0.04875   0.00825   311.230   1137.797   268.000   268.000   10.720   0.000   0.000   16.248
0.00125   0.00775   293.078   1137.797   268.000   268.000   0.000   10.720   0.000   0.000
0.00375   0.00775   293.101   1137.797   268.000   268.000   10.720   10.720   0.000   0.000
0.00625   0.00775   293.153   1137.797   268.000   268.000   10.720   10.720   0.000   0.000
0.00875   0.00775   293.242   1137.797   268.000   268.000   10.720   10.720   0.000   0.000
0.01125   0.00775   293.385   1137.797   268.000   268.000   10.720   10.720   0.000   0.000
0.01375   0.00775   293.604   1137.797   268.000   268.000   10.720   10.720   0.000   0.000
0.01625   0.00775   293.930   1137.797   268.000   268.000   10.720   10.720   0.000   0.000
0.01875   0.00775   294.401   1137.797   268.000   268.000   10.720   10.720   0.000   0.000
0.02125   0.00775   295.067   1137.797   268.000   268.000   10.720   10.720   0.000   0.000
0.02375   0.00775   295.988   1137.797   268.000   268.000   10.720   10.720   0.000   0.000
0.02625   0.00775   297.235   1137.797   268.000   268.000   10.720   10.720   0.000   0.000
0.02875   0.00775   298.875   1137.797   268.000   268.000   10.720   10.720   0.000   0.000
0.03125   0.00775   300.900   1137.797   268.000   268.000   10.720   10.720   0.000   0.000
0.03375   0.00775   302.685   1137.797   268.000   268.000   10.720   10.720   0.000   0.000
0.03625   0.00775   304.227   1137.797   268.000   268.000   10.720   10.720   0.000   0.000
0.03875   0.00775   305.608   1137.797   268.000   268.000   10.720   10.720   0.000   0.000
0.04125   0.00775   306.913   1137.797   268.000   268.000   10.720   10.720   0.000   0.000
0.04375   0.00775   308.220   1137.797   268.000   268.000   10.720   10.720   0.000   0.000
0.04625   0.00775   309.593   1137.797   268.000   268.000   10.720   10.720   0.000   0.000
0.04875   0.00775   311.071   1137.797   268.000   268.000   10.720   0.000   0.000   16.248
0.00125   0.00725   293.078   1137.797   268.000   268.000   0.000   10.720   0.000   0.000
0.00375   0.00725   293.101   1137.797   268.000   268.000   10.720   10.720   0.000   0.000
0.00625   0.00725   293.153   1137.797   268.000   268.000   10.720   10.720   0.000   0.000
0.00875   0.00725   293.242   1137.797   268.000   268.000   10.720   10.720   0.000   0.000
0.01125   0.00725   293.385   1137.797   268.000   268.000   10.720   10.720   0.000   0.000
0.01375   0.00725   293.603   1137.797   268.000   268.000   10.720   10.720   0.000   0.000
0.01625   0.00725   293.927   1137.797   268.000   268.000   10.720   10.720   0.000   0.000
0.01875   0.00725   294.397   1137.797   268.000   268.000   10.720   10.720   0.000   0.000
0.02125   0.00725   295.062   1137.797   268.000   268.000   10.720   10.720   0.000   0.000
0.02375   0.00725   295.982   1137.797   268.000   268.000   10.720   10.720   0.000   0.000
0.02625   0.00725   297.222   1137.797   268.000   268.000   10.720   10.720   0.000   0.000
0.02875   0.00725   298.842   1137.797   268.000   268.000   10.720   10.720   0.000   0.000
0.03125   0.00725   300.796   1137.797   268.000   268.000   10.720   10.720   0.000   0.000
0.03375   0.00725   302.560   1137.797   268.000   268.000   10.720   10.720   0.000   0.000
0.03625   0.00725   304.096   1137.797   268.000   268.000   10.720   10.720   0.000   0.000
0.03875   0.00725   305.474   1137.797   268.000   268.000   10.720   10.720   0.000   0.000
0.04125   0.00725   306.777   1137.797   268.000   268.000   10.720   10.720   0.000   0.000
0.04375   0.00725   308.083   1137.797   268.000   268.000   10.720   10.720   0.000   0.000
0.04625   0.00725   309.457   1137.797   268.000   268.000   10.720   10.720   0.000   0.000
0.04875   0.00725   310.947   1137.797   268.000   268.000   10.720   0.000   0.000   16.249
0.00125   0.00675   293.077   1137.797   268.000   268.000   0.000   10.720   0.000   0.000
0.00375   0.00675   293.101   1137.797   268.000   268.000   10.720   10.720   0.000   0.000
0.00625   0.00675   293.152   1137.797   268.000   268.000   10.720   10.720   0.000   0.000
0.00875   0.00675   293.241   1137.797   268.000   268.000   10.720   10.720   0.000   0.000
0.01125   0.00675   293.383   1137.797   268.000   268.000   10.720   10.720   0.000   0.000
0.01375   0.00675   293.601   1137.797   268.000   268.000   10.720   10.720   0.000   0.000
0.01625   0.00675   293.925   1137.797   268.000   268.000   10.720   10.720   0.000   0.000
0.01875   0.00675   294.394   1137.797   268.000   268.000   10.720   10.720   0.000   0.000
0.02125   0.00675   295.057   1137.797   268.000   268.000   10.720   10.720   0.000   0.000
0.02375   0.00675   295.974   1137.797   268.000   268.000   10.720   10.720   0.000   0.000
0.02625   0.00675   297.210   1137.797   268.000   268.000   10.720   10.720   0.000   0.000
0.02875   0.00675   298.813   1137.797   268.000   268.000   10.720   10.720   0.000   0.000
0.03125   0.00675   300.720   1137.797   268.000   268.000   10.720   10.720   0.000   0.000
0.03375   0.00675   302.468   1137.797   268.000   268.000   10.720   10.720   0.000   0.000
0.03625   0.00675   303.998   1137.797   268.000   268.000   10.720   10.720   0.000   0.000
0.03875   0.00675   305.373   1137.797   268.000   268.000   10.720   10.720   0.000   0.000
0.04125   0.00675   306.674   1137.797   268.000   268.000   10.720   10.720   0.000   0.000
0.04375   0.00675   307.978   1137.797   268.000   268.000   10.720   10.720   0.000   0.000
0.04625   0.00675   309.353   1137.797   268.000   268.000   10.720   10.720   0.000   0.000
0.04875   0.00675   310.861   1137.797   268.000   268.000   10.720   0.000   0.000   16.249
0.00125   0.00625   293.077   1137.797   268.000   2.085   0.000   10.720   0.000   0.000
0.00375   0.00625   293.100   1137.797   268.000   2.085   10.720   10.720   0.000   0.000
0.00625   0.00625   293.151   1137.797   268.000   2.085   10.720   10.720   0.000   0.000
0.00875   0.00625   293.240   1137.797   268.000   2.085   10.720   10.720   0.000   0.000
0.01125   0.00625   293.382   1137.797   268.000   2.085   10.720   10.720   0.000   0.000
0.01375   0.00625   293.599   1137.797   268.000   2.085   10.720   10.720   0.000   0.000
0.01625   0.00625   293.922   1137.797   268.000   2.085   10.720   10.720   0.000   0.000
0.01875   0.00625   294.389   1137.797   268.000   2.085   10.720   10.720   0.000   0.000
0.02125   0.00625   295.051   1137.797   268.000   2.085   10.720   10.720   0.000   0.000
0.02375   0.00625   295.965   1137.797   268.000   2.085   10.720   10.720   0.000   0.000
0.02625   0.00625   297.197   1137.797   268.000   2.085   10.720   10.720   0.000   0.000
0.02875   0.00625   298.790   1137.797   268.000   2.085   10.720   10.720   0.000   0.000
0.03125   0.00625   300.672   1137.797   268.000   2.085   10.720   10.720   0.000   0.000
0.03375   0.00625   302.409   1137.797   268.000   2.085   10.720   10.720   0.000   0.000
0.03625   0.00625   303.935   1137.797   268.000   2.085   10.720   10.720   0.000   0.000
0.03875   0.00625   305.306   1137.797   268.000   2.085   10.720   10.720   0.000   0.000
0.04125   0.00625   306.604   1137.797   268.000   2.085   10.720   10.720   0.000   0.000
0.04375   0.00625   307.906   1137.797   268.000   2.085   10.720   10.720   0.000   0.000
0.04625   0.00625   309.281   1137.797   268.000   2.085   10.720   10.720   0.000   0.000
0.04875   0.00625   310.813   1137.797   268.000   2.085   10.720   0.000   0.000   16.249
0.00125   0.00575   293.032   686.719   2.085   1.046   0.000   0.042   0.000   0.000
0.00375   0.00575   293.043   686.719   2.085   1.046   0.042   0.042   0.000   0.000
0.00625   0.00575   293.068   686.719   2.085   1.046   0.042   0.042   0.000   0.000
0.00875   0.00575   293.113   686.719   2.085   1.046   0.042   0.042   0.000   0.000
0.01125   0.00575   293.187   686.719   2.085   1.046   0.042   0.042   0.000   0.000
0.01375   0.00575   293.306   686.719   2.085   1.046   0.042   0.042   0.000   0.000
0.01625   0.00575   293.489   686.719   2.085   1.046   0.042   0.042   0.000   0.000
0.01875   0.00575   293.764   686.719   2.085   1.046   0.042   0.042   0.000   0.000
0.02125   0.00575   294.169   686.719   2.085   1.046   0.042   0.042   0.000   0.000
0.02375   0.00575   294.750   686.719   2.085   1.046   0.042   0.042   0.000   0.000
0.02625   0.00575   295.559   686.719   2.085   1.046   0.042   0.042   0.000   0.000
0.02875   0.00575   296.636   686.719   2.085   1.046   0.042   0.042   0.000   0.000
0.03125   0.00575   297.924   686.719   2.085   1.046   0.042   0.042   0.000   0.000
0.03375   0.00575   299.099   686.719   2.085   1.046   0.042   0.042   0.000   0.000
0.03625   0.00575   300.112   686.719   2.085   1.046   0.042   0.042   0.000   0.000
0.03875   0.00575   301.020   686.719   2.085   1.046   0.042   0.042   0.000   0.000
0.04125   0.00575   301.898   686.719   2.085   1.046   0.042   0.042   0.000   0.000
0.04375   0.00575   302.824   686.719   2.085   1.046   0.042   0.042   0.000   0.000
0.04625   0.00575   303.997   686.719   2.085   1.046   0.042   0.042   0.000   0.000
0.04875   0.00575   309.537   686.719   2.085   1.046   0.042   0.000   0.000   6.095
0.00125   0.00525   293.008   686.719   1.046   1.046   0.000   0.042   0.000   0.000
0.00375   0.00525   293.011   686.719   1.046   1.046   0.042   0.042   0.000   0.000
0.00625   0.00525   293.018   686.719   1.046   1.046   0.042   0.042   0.000   0.000
0.00875   0.00525   293.031   686.719   1.046   1.046   0.042   0.042   0.000   0.000
0.01125   0.00525   293.055   686.719   1.046   1.046   0.042   0.042   0.000   0.000
0.01375   0.00525   293.094   686.719   1.046   1.046   0.042   0.042   0.000   0.000
0.01625   0.00525   293.158   686.719   1.046   1.046   0.042   0.042   0.000   0.000
0.01875   0.00525   293.260   686.719   1.046   1.046   0.042   0.042   0.000   0.000
0.02125   0.00525   293.419   686.719   1.046   1.046   0.042   0.042   0.000   0.000
0.02375   0.00525   293.659   686.719   1.046   1.046   0.042   0.042   0.000   0.000
0.02625   0.00525   294.011   686.719   1.046   1.046   0.042   0.042   0.000   0.000
0.02875   0.00525   294.501   686.719   1.046   1.046   0.042   0.042   0.000   0.000
0.03125   0.00525   295.103   686.719   1.046   1.046   0.042   0.042   0.000   0.000
0.03375   0.00525   295.645   686.719   1.046   1.046   0.042   0.042   0.000   0.000
0.03625   0.00525   296.111   686.719   1.046   1.046   0.042   0.042   0.000   0.000
0.03875   0.00525   296.541   686.719   1.046   1.046   0.042   0.042   0.000   0.000
0.04125   0.00525   296.992   686.719   1.046   1.046   0.042   0.042   0.000   0.000
0.04375   0.00525   297.530   686.719   1.046   1.046   0.042   0.042   0.000   0.000
0.04625   0.00525   298.495   686.719   1.046   1.046   0.042   0.042   0.000   0.000
0.04875   0.00525   307.419   686.719   1.046   1.046   0.042   0.000   0.000   6.097
0.00125   0.00475   293.002   686.719   1.046   1.046   0.000   0.042   0.000   0.000
0.00375   0.00475   293.002   686.719   1.046   1.046   0.042   0.042   0.000   0.000
0.00625   0.00475   293.004   686.719   1.046   1.046   0.042   0.042   0.000   0.000
0.00875   0.00475   293.008   686.719   1.046   1.046   0.042   0.042   0.000   0.000
0.01125   0.00475   293.015   686.719   1.046   1.046   0.042   0.042   0.000   0.000
0.01375   0.00475   293.027   686.719   1.046   1.046   0.042   0.042   0.000   0.000
0.01625   0.00475   293.048   686.719   1.046   1.046   0.042   0.042   0.000   0.000
0.01875   0.00475   293.084   686.719   1.046   1.046   0.042   0.042   0.000   0.000
0.02125   0.00475   293.142   686.719   1.046   1.046   0.042   0.042   0.000   0.000
0.02375   0.00475   293.235   686.719   1.046   1.046   0.042   0.042   0.000   0.000
0.02625   0.00475   293.380   686.719   1.046   1.046   0.042   0.042   0.000   0.000
0.02875   0.00475   293.592   686.719   1.046   1.046   0.042   0.042   0.000   0.000
0.03125   0.00475   293.865   686.719   1.046   1.046   0.042   0.042   0.000   0.000
0.03375   0.00475   294.130   686.719   1.046   1.046   0.042   0.042   0.000   0.000
0.03625   0.00475   294.389   686.719   1.046   1.046   0.042   0.042   0.000   0.000
0.03875   0.00475   294.674   686.719   1.046   1.046   0.042   0.042   0.000   0.000
0.04125   0.00475   295.026   686.719   1.046   1.046   0.042   0.042   0.000   0.000
0.04375   0.00475   295.501   686.719   1.046   1.046   0.042   0.042   0.000   0.000
0.04625   0.00475   296.429   686.719   1.046   1.046   0.042   0.042   0.000   0.000
0.04875   0.00475   305.337   686.719   1.046   1.046   0.042   0.000   0.000   6.099
0.00125   0.00425   293.001   686.719   1.046   2.085   0.000   0.042   0.000   0.000
0.00375   0.00425   293.001   686.719   1.046   2.085   0.042   0.042   0.000   0.000
0.00625   0.00425   293.002   686.719   1.046   2.085   0.042   0.042   0.000   0.000
0.00875   0.00425   293.003   686.719   1.046   2.085   0.042   0.042   0.000   0.000
0.01125   0.00425   293.007   686.719   1.046   2.085   0.042   0.042   0.000   0.000
0.01375   0.00425   293.012   686.719   1.046   2.085   0.042   0.042   0.000   0.000
0.01625   0.00425   293.023   686.719   1.046   2.085   0.042   0.042   0.000   0.000
0.01875   0.00425   293.041   686.719   1.046   2.085   0.042   0.042   0.000   0.000
0.02125   0.00425   293.072   686.719   1.046   2.085   0.042   0.042   0.000   0.000
0.02375   0.00425   293.122   686.719   1.046   2.085   0.042   0.042   0.000   0.000
0.02625   0.00425   293.203   686.719   1.046   2.085   0.042   0.042   0.000   0.000
0.02875   0.00425   293.327   686.719   1.046   2.085   0.042   0.042   0.000   0.000
0.03125   0.00425   293.503   686.719   1.046   2.085   0.042   0.042   0.000   0.000
0.03375   0.00425   293.726   686.719   1.046   2.085   0.042   0.042   0.000   0.000
0.03625   0.00425   294.015   686.719   1.046   2.085   0.042   0.042   0.000   0.000
0.03875   0.00425   294.398   686.719   1.046   2.085   0.042   0.042   0.000   0.000
0.04125   0.00425   294.912   686.719   1.046   2.085   0.042   0.042   0.000   0.000
0.04375   0.00425   295.598   686.719   1.046   2.085   0.042   0.042   0.000   0.000
0.04625   0.00425   296.626   686.719   1.046   2.085   0.042   0.042   0.000   0.000
0.04875   0.00425   302.102   686.719   1.046   2.085   0.042   0.000   0.000   6.102
0.00125   0.00375   293.001   1137.797   2.085   268.000   0.000   10.720   0.000   0.000
0.00375   0.00375   293.002   1137.797   2.085   268.000   10.720   10.720   0.000   0.000
0.00625   0.00375   293.003   1137.797   2.085   268.000   10.720   10.720   0.000   0.000
0.00875   0.00375   293.006   1137.797   2.085   268.000   10.720   10.720   0.000   0.000
0.01125   0.00375   293.010   1137.797   2.085   268.000   10.720   10.720   0.000   0.000
0.01375   0.00375   293.019   1137.797   2.085   268.000   10.720   10.720   0.000   0.000
0.01625   0.00375   293.033   1137.797   2.085   268.000   10.720   10.720   0.000   0.000
0.01875   0.00375   293.057   1137.797   2.085   268.000   10.720   10.720   0.000   0.000
0.02125   0.00375   293.096   1137.797   2.085   268.000   10.720   10.720   0.000   0.000
0.02375   0.00375   293.157   1137.797   2.085   268.000   10.720   10.720   0.000   0.000
0.02625   0.00375   293.251   1137.797   2.085   268.000   10.720   10.720   0.000   0.000
0.02875   0.00375   293.392   1137.797   2.085   268.000   10.720   10.720   0.000   0.000
0.03125   0.00375   293.595   1137.797   2.085   268.000   10.720   10.720   0.000   0.000
0.03375   0.00375   293.883   1137.797   2.085   268.000   10.720   10.720   0.000   0.000
0.03625   0.00375   294.279   1137.797   2.085   268.000   10.720   10.720   0.000   0.000
0.03875   0.00375   294.811   1137.797   2.085   268.000   10.720   10.720   0.000   0.000
0.04125   0.00375   295.508   1137.797   2.085   268.000   10.720   10.720   0.000   0.000
0.04375   0.00375   296.403   1137.797   2.085   268.000   10.720   10.720   0.000   0.000
0.04625   0.00375   297.528   1137.797   2.085   268.000   10.720   10.720   0.000   0.000
0.04875   0.00375   298.943   1137.797   2.085   268.000   10.720   0.000   0.000   16.280
0.00125   0.00325   293.001   1137.797   268.000   268.000   0.000   10.720   0.000   0.000
0.00375   0.00325   293.002   1137.797   268.000   268.000   10.720   10.720   0.000   0.000
0.00625   0.00325   293.003   1137.797   268.000   268.000   10.720   10.720   0.000   0.000
0.00875   0.00325   293.006   1137.797   268.000   268.000   10.720   10.720   0.000   0.000
0.01125   0.00325   293.010   1137.797   268.000   268.000   10.720   10.720   0.000   0.000
0.01375   0.00325   293.019   1137.797   268.000   268.000   10.720   10.720   0.000   0.000
0.01625   0.00325   293.033   1137.797   268.000   268.000   10.720   10.720   0.000   0.000
0.01875   0.00325   293.057   1137.797   268.000   268.000   10.720   10.720   0.000   0.000
0.02125   0.00325   293.096   1137.797   268.000   268.000   10.720   10.720   0.000   0.000
0.02375   0.00325   293.157   1137.797   268.000   268.000   10.720   10.720   0.000   0.000
0.02625   0.00325   293.252   1137.797   268.000   268.000   10.720   10.720   0.000   0.000
0.02875   0.00325   293.392   1137.797   268.000   268.000   10.720   10.720   0.000   0.000
0.03125   0.00325   293.596   1137.797   268.000   268.000   10.720   10.720   0.000   0.000
0.03375   0.00325   293.884   1137.797   268.000   268.000   10.720   10.720   0.000   0.000
0.03625   0.00325   294.281   1137.797   268.000   268.000   10.720   10.720   0.000   0.000
0.03875   0.00325   294.813   1137.797   268.000   268.000   10.720   10.720   0.000   0.000
0.04125   0.00325   295.512   1137.797   268.000   268.000   10.720   10.720   0.000   0.000
0.04375   0.00325   296.408   1137.797   268.000   268.000   10.720   10.720   0.000   0.000
0.04625   0.00325   297.533   1137.797   268.000   268.000   10.720   10.720   0.000   0.000
0.04875   0.00325   298.923   1137.797   268.000   268.000   10.720   0.000   0.000   16.280
0.00125   0.00275   293.001   1137.797   268.000   268.000   0.000   10.720   0.000   0.000
0.00375   0.00275   293.002   1137.797   268.000   268.000   10.720   10.720   0.000   0.000
0.00625   0.00275   293.003   1137.797   268.000   268.000   10.720   10.720   0.000   0.000
0.00875   0.00275   293.006   1137.797   268.000   268.000   10.720   10.720   0.000   0.000
0.01125   0.00275   293.010   1137.797   268.000   268.000   10.720   10.720   0.000   0.000
0.01375   0.00275   293.019   1137.797   268.000   268.000   10.720   10.720   0.000   0.000
0.01625   0.00275   293.033   1137.797   268.000   268.000   10.720   10.720   0.000   0.000
0.01875   0.00275   293.057   1137.797   268.000   268.000   10.720   10.720   0.000   0.000
0.02125   0.00275   293.096   1137.797   268.000   268.000   10.720   10.720   0.000   0.000
0.02375   0.00275   293.157   1137.797   268.000   268.000   10.720   10.720   0.000   0.000
0.02625   0.00275   293.252   1137.797   268.000   268.000   10.720   10.720   0.000   0.000
0.02875   0.00275   293.393   1137.797   268.000   268.000   10.720   10.720   0.000   0.000
0.03125   0.00275   293.597   1137.797   268.000   268.000   10.720   10.720   0.000   0.000
0.03375   0.00275   293.885   1137.797   268.000   268.000   10.720   10.720   0.000   0.000
0.03625   0.00275   294.282   1137.797   268.000   268.000   10.720   10.720   0.000   0.000
0.03875   0.00275   294.816   1137.797   268.000   268.000   10.720   10.720   0.000   0.000
0.04125   0.00275   295.516   1137.797   268.000   268.000   10.720   10.720   0.000   0.000
0.04375   0.00275   296.412   1137.797   268.000   268.000   10.720   10.720   0.000   0.000
0.04625   0.00275   297.535   1137.797   268.000   268.000   10.720   10.720   0.000   0.000
0.04875   0.00275   298.908   1137.797   268.000   268.000   10.720   0.000   0.000   16.280
0.00125   0.00225   293.001   1137.797   268.000   268.000   0.000   10.720   0.000   0.000
0.00375   0.00225   293.002   1137.797   268.000   268.000   10.720   10.720   0.000   0.000
0.00625   0.00225   293.003   1137.797   268.000   268.000   10.720   10.720   0.000   0.000
0.00875   0.00225   293.006   1137.797   268.000   268.000   10.720   10.720   0.000   0.000
0.01125   0.00225   293.010   1137.797   268.000   268.000   10.720   10.720   0.000   0.000
0.01375   0.00225   293.019   1137.797   268.000   268.000   10.720   10.720   0.000   0.000
0.01625   0.00225   293.033   1137.797   268.000   268.000   10.720   10.720   0.000   0.000
0.01875   0.00225   293.057   1137.797   268.000   268.000   10.720   10.720   0.000   0.000
0.02125   0.00225   293.096   1137.797   268.000   268.000   10.720   10.720   0.000   0.000
0.02375   0.00225   293.158   1137.797   268.000   268.000   10.720   10.720   0.000   0.000
0.02625   0.00225   293.252   1137.797   268.000   268.000   10.720   10.720   0.000   0.000
0.02875   0.00225   293.393   1137.797   268.000   268.000   10.720   10.720   0.000   0.000
0.03125   0.00225   293.597   1137.797   268.000   268.000   10.720   10.720   0.000   0.000
0.03375   0.00225   293.886   1137.797   268.000   268.000   10.720   10.720   0.000   0.000
0.03625   0.00225   294.283   1137.797   268.000   268.000   10.720   10.720   0.000   0.000
0.03875   0.00225   294.818   1137.797   268.000   268.000   10.720   10.720   0.000   0.000
0.04125   0.00225   295.519   1137.797   268.000   268.000   10.720   10.720   0.000   0.000
0.04375   0.00225   296.416   1137.797   268.000   268.000   10.720   10.720   0.000   0.000
0.04625   0.00225   297.537   1137.797   268.000   268.000   10.720   10.720   0.000   0.000
0.04875   0.00225   298.896   1137.797   268.000   268.000   10.720   0.000   0.000   16.280
0.00125   0.00175   293.001   1137.797   268.000   268.000   0.000   10.720   0.000   0.000
0.00375   0.00175   293.002   1137.797   268.000   268.000   10.720   10.720   0.000   0.000
0.00625   0.00175   293.003   1137.797   268.000   268.000   10.720   10.720   0.000   0.000
0.00875   0.00175   293.006   1137.797   268.000   268.000   10.720   10.720   0.000   0.000
0.01125   0.00175   293.010   1137.797   268.000   268.000   10.720   10.720   0.000   0.000
0.01375   0.00175   293.019   1137.797   268.000   268.000   10.720   10.720   0.000   0.000
0.01625   0.00175   293.033   1137.797   268.000   268.000   10.720   10.720   0.000   0.000
0.01875   0.00175   293.057   1137.797   268.000   268.000   10.720   10.720   0.000   0.000
0.02125   0.00175   293.096   1137.797   268.000   268.000   10.720   10.720   0.000   0.000