VARIABLES = X, Y, T, ap,an,as,aw,ae,sp,su
ZONE I=20,J=20, F=POINT,t="22.440"
0.00125   0.00975   297.396   1137.797   0.000   268.000   0.000   10.720   0.000   -0.003
0.00375   0.00975   297.618   1137.797   0.000   268.000   10.720   10.720   0.000   -0.003
0.00625   0.00975   298.067   1137.797   0.000   268.000   10.720   10.720   0.000   -0.004
0.00875   0.00975   298.753   1137.797   0.000   268.000   10.720   10.720   0.000   -0.004
0.01125   0.00975   299.692   1137.797   0.000   268.000   10.720   10.720   0.000   -0.005
0.01375   0.00975   300.903   1137.797   0.000   268.000   10.720   10.720   0.000   -0.006
0.01625   0.00975   302.410   1137.797   0.000   268.000   10.720   10.720   0.000   -0.007
0.01875   0.00975   304.243   1137.797   0.000   268.000   10.720   10.720   0.000   -0.008
0.02125   0.00975   306.433   1137.797   0.000   268.000   10.720   10.720   0.000   -0.010
0.02375   0.00975   309.017   1137.797   0.000   268.000   10.720   10.720   0.000   -0.012
0.02625   0.00975   312.040   1137.797   0.000   268.000   10.720   10.720   0.000   -0.014
0.02875   0.00975   315.588   1137.797   0.000   268.000   10.720   10.720   0.000   -0.017
0.03125   0.00975   320.080   1137.797   0.000   268.000   10.720   10.720   0.000   81.093
0.03375   0.00975   323.742   1137.797   0.000   268.000   10.720   10.720   0.000   81.035
0.03625   0.00975   326.989   1137.797   0.000   268.000   10.720   10.720   0.000   80.982
0.03875   0.00975   329.905   1137.797   0.000   268.000   10.720   10.720   0.000   80.933
0.04125   0.00975   332.527   1137.797   0.000   268.000   10.720   10.720   0.000   80.888
0.04375   0.00975   334.880   1137.797   0.000   268.000   10.720   10.720   0.000   80.846
0.04625   0.00975   336.979   1137.797   0.000   268.000   10.720   10.720   0.000   80.809
0.04875   0.00975   338.812   1137.797   0.000   268.000   10.720   0.000   0.000   96.937
0.00125   0.00925   297.395   1137.797   268.000   268.000   0.000   10.720   0.000   0.000
0.00375   0.00925   297.616   1137.797   268.000   268.000   10.720   10.720   0.000   0.000
0.00625   0.00925   298.065   1137.797   268.000   268.000   10.720   10.720   0.000   0.000
0.00875   0.00925   298.751   1137.797   268.000   268.000   10.720   10.720   0.000   0.000
0.01125   0.00925   299.690   1137.797   268.000   268.000   10.720   10.720   0.000   0.000
0.01375   0.00925   300.901   1137.797   268.000   268.000   10.720   10.720   0.000   0.000
0.01625   0.00925   302.408   1137.797   268.000   268.000   10.720   10.720   0.000   0.000
0.01875   0.00925   304.241   1137.797   268.000   268.000   10.720   10.720   0.000   0.000
0.02125   0.00925   306.431   1137.797   268.000   268.000   10.720   10.720   0.000   0.000
0.02375   0.00925   309.014   1137.797   268.000   268.000   10.720   10.720   0.000   0.000
0.02625   0.00925   312.034   1137.797   268.000   268.000   10.720   10.720   0.000   0.000
0.02875   0.00925   315.567   1137.797   268.000   268.000   10.720   10.720   0.000   0.000
0.03125   0.00925   319.829   1137.797   268.000   268.000   10.720   10.720   0.000   0.000
0.03375   0.00925   323.474   1137.797   268.000   268.000   10.720   10.720   0.000   0.000
0.03625   0.00925   326.720   1137.797   268.000   268.000   10.720   10.720   0.000   0.000
0.03875   0.00925   329.635   1137.797   268.000   268.000   10.720   10.720   0.000   0.000
0.04125   0.00925   332.257   1137.797   268.000   268.000   10.720   10.720   0.000   0.000
0.04375   0.00925   334.610   1137.797   268.000   268.000   10.720   10.720   0.000   0.000
0.04625   0.00925   336.710   1137.797   268.000   268.000   10.720   10.720   0.000   0.000
0.04875   0.00925   338.545   1137.797   268.000   268.000   10.720   0.000   0.000   16.163
0.00125   0.00875   297.392   1137.797   268.000   268.000   0.000   10.720   0.000   0.000
0.00375   0.00875   297.614   1137.797   268.000   268.000   10.720   10.720   0.000   0.000
0.00625   0.00875   298.063   1137.797   268.000   268.000   10.720   10.720   0.000   0.000
0.00875   0.00875   298.749   1137.797   268.000   268.000   10.720   10.720   0.000   0.000
0.01125   0.00875   299.687   1137.797   268.000   268.000   10.720   10.720   0.000   0.000
0.01375   0.00875   300.897   1137.797   268.000   268.000   10.720   10.720   0.000   0.000
0.01625   0.00875   302.404   1137.797   268.000   268.000   10.720   10.720   0.000   0.000
0.01875   0.00875   304.236   1137.797   268.000   268.000   10.720   10.720   0.000   0.000
0.02125   0.00875   306.425   1137.797   268.000   268.000   10.720   10.720   0.000   0.000
0.02375   0.00875   309.007   1137.797   268.000   268.000   10.720   10.720   0.000   0.000
0.02625   0.00875   312.023   1137.797   268.000   268.000   10.720   10.720   0.000   0.000
0.02875   0.00875   315.532   1137.797   268.000   268.000   10.720   10.720   0.000   0.000
0.03125   0.00875   319.619   1137.797   268.000   268.000   10.720   10.720   0.000   0.000
0.03375   0.00875   323.241   1137.797   268.000   268.000   10.720   10.720   0.000   0.000
0.03625   0.00875   326.483   1137.797   268.000   268.000   10.720   10.720   0.000   0.000
0.03875   0.00875   329.397   1137.797   268.000   268.000   10.720   10.720   0.000   0.000
0.04125   0.00875   332.019   1137.797   268.000   268.000   10.720   10.720   0.000   0.000
0.04375   0.00875   334.372   1137.797   268.000   268.000   10.720   10.720   0.000   0.000
0.04625   0.00875   336.473   1137.797   268.000   268.000   10.720   10.720   0.000   0.000
0.04875   0.00875   338.314   1137.797   268.000   268.000   10.720   0.000   0.000   16.164
0.00125   0.00825   297.389   1137.797   268.000   268.000   0.000   10.720   0.000   0.000
0.00375   0.00825   297.611   1137.797   268.000   268.000   10.720   10.720   0.000   0.000
0.00625   0.00825   298.059   1137.797   268.000   268.000   10.720   10.720   0.000   0.000
0.00875   0.00825   298.744   1137.797   268.000   268.000   10.720   10.720   0.000   0.000
0.01125   0.00825   299.682   1137.797   268.000   268.000   10.720   10.720   0.000   0.000
0.01375   0.00825   300.892   1137.797   268.000   268.000   10.720   10.720   0.000   0.000
0.01625   0.00825   302.398   1137.797   268.000   268.000   10.720   10.720   0.000   0.000
0.01875   0.00825   304.229   1137.797   268.000   268.000   10.720   10.720   0.000   0.000
0.02125   0.00825   306.417   1137.797   268.000   268.000   10.720   10.720   0.000   0.000
0.02375   0.00825   308.997   1137.797   268.000   268.000   10.720   10.720   0.000   0.000
0.02625   0.00825   312.008   1137.797   268.000   268.000   10.720   10.720   0.000   0.000
0.02875   0.00825   315.491   1137.797   268.000   268.000   10.720   10.720   0.000   0.000
0.03125   0.00825   319.445   1137.797   268.000   268.000   10.720   10.720   0.000   0.000
0.03375   0.00825   323.042   1137.797   268.000   268.000   10.720   10.720   0.000   0.000
0.03625   0.00825   326.278   1137.797   268.000   268.000   10.720   10.720   0.000   0.000
0.03875   0.00825   329.191   1137.797   268.000   268.000   10.720   10.720   0.000   0.000
0.04125   0.00825   331.812   1137.797   268.000   268.000   10.720   10.720   0.000   0.000
0.04375   0.00825   334.165   1137.797   268.000   268.000   10.720   10.720   0.000   0.000
0.04625   0.00825   336.269   1137.797   268.000   268.000   10.720   10.720   0.000   0.000
0.04875   0.00825   338.118   1137.797   268.000   268.000   10.720   0.000   0.000   16.164
0.00125   0.00775   297.384   1137.797   268.000   268.000   0.000   10.720   0.000   0.000
0.00375   0.00775   297.606   1137.797   268.000   268.000   10.720   10.720   0.000   0.000
0.00625   0.00775   298.054   1137.797   268.000   268.000   10.720   10.720   0.000   0.000
0.00875   0.00775   298.739   1137.797   268.000   268.000   10.720   10.720   0.000   0.000
0.01125   0.00775   299.676   1137.797   268.000   268.000   10.720   10.720   0.000   0.000
0.01375   0.00775   300.885   1137.797   268.000   268.000   10.720   10.720   0.000   0.000
0.01625   0.00775   302.390   1137.797   268.000   268.000   10.720   10.720   0.000   0.000
0.01875   0.00775   304.220   1137.797   268.000   268.000   10.720   10.720   0.000   0.000
0.02125   0.00775   306.406   1137.797   268.000   268.000   10.720   10.720   0.000   0.000
0.02375   0.00775   308.983   1137.797   268.000   268.000   10.720   10.720   0.000   0.000
0.02625   0.00775   311.988   1137.797   268.000   268.000   10.720   10.720   0.000   0.000
0.02875   0.00775   315.448   1137.797   268.000   268.000   10.720   10.720   0.000   0.000
0.03125   0.00775   319.302   1137.797   268.000   268.000   10.720   10.720   0.000   0.000
0.03375   0.00775   322.876   1137.797   268.000   268.000   10.720   10.720   0.000   0.000
0.03625   0.00775   326.106   1137.797   268.000   268.000   10.720   10.720   0.000   0.000
0.03875   0.00775   329.017   1137.797   268.000   268.000   10.720   10.720   0.000   0.000
0.04125   0.00775   331.636   1137.797   268.000   268.000   10.720   10.720   0.000   0.000
0.04375   0.00775   333.990   1137.797   268.000   268.000   10.720   10.720   0.000   0.000
0.04625   0.00775   336.096   1137.797   268.000   268.000   10.720   10.720   0.000   0.000
0.04875   0.00775   337.958   1137.797   268.000   268.000   10.720   0.000   0.000   16.165
0.00125   0.00725   297.379   1137.797   268.000   268.000   0.000   10.720   0.000   0.000
0.00375   0.00725   297.600   1137.797   268.000   268.000   10.720   10.720   0.000   0.000
0.00625   0.00725   298.048   1137.797   268.000   268.000   10.720   10.720   0.000   0.000
0.00875   0.00725   298.732   1137.797   268.000   268.000   10.720   10.720   0.000   0.000
0.01125   0.00725   299.668   1137.797   268.000   268.000   10.720   10.720   0.000   0.000
0.01375   0.00725   300.876   1137.797   268.000   268.000   10.720   10.720   0.000   0.000
0.01625   0.00725   302.380   1137.797   268.000   268.000   10.720   10.720   0.000   0.000
0.01875   0.00725   304.208   1137.797   268.000   268.000   10.720   10.720   0.000   0.000
0.02125   0.00725   306.392   1137.797   268.000   268.000   10.720   10.720   0.000   0.000
0.02375   0.00725   308.967   1137.797   268.000   268.000   10.720   10.720   0.000   0.000
0.02625   0.00725   311.966   1137.797   268.000   268.000   10.720   10.720   0.000   0.000
0.02875   0.00725   315.405   1137.797   268.000   268.000   10.720   10.720   0.000   0.000
0.03125   0.00725   319.189   1137.797   268.000   268.000   10.720   10.720   0.000   0.000
0.03375   0.00725   322.741   1137.797   268.000   268.000   10.720   10.720   0.000   0.000
0.03625   0.00725   325.966   1137.797   268.000   268.000   10.720   10.720   0.000   0.000
0.03875   0.00725   328.875   1137.797   268.000   268.000   10.720   10.720   0.000   0.000
0.04125   0.00725   331.493   1137.797   268.000   268.000   10.720   10.720   0.000   0.000
0.04375   0.00725   333.846   1137.797   268.000   268.000   10.720   10.720   0.000   0.000
0.04625   0.00725   335.956   1137.797   268.000   268.000   10.720   10.720   0.000   0.000
0.04875   0.00725   337.834   1137.797   268.000   268.000   10.720   0.000   0.000   16.165
0.00125   0.00675   297.372   1137.797   268.000   268.000   0.000   10.720   0.000   0.000
0.00375   0.00675   297.593   1137.797   268.000   268.000   10.720   10.720   0.000   0.000
0.00625   0.00675   298.040   1137.797   268.000   268.000   10.720   10.720   0.000   0.000
0.00875   0.00675   298.723   1137.797   268.000   268.000   10.720   10.720   0.000   0.000
0.01125   0.00675   299.659   1137.797   268.000   268.000   10.720   10.720   0.000   0.000
0.01375   0.00675   300.865   1137.797   268.000   268.000   10.720   10.720   0.000   0.000
0.01625   0.00675   302.367   1137.797   268.000   268.000   10.720   10.720   0.000   0.000
0.01875   0.00675   304.194   1137.797   268.000   268.000   10.720   10.720   0.000   0.000
0.02125   0.00675   306.376   1137.797   268.000   268.000   10.720   10.720   0.000   0.000
0.02375   0.00675   308.948   1137.797   268.000   268.000   10.720   10.720   0.000   0.000
0.02625   0.00675   311.941   1137.797   268.000   268.000   10.720   10.720   0.000   0.000
0.02875   0.00675   315.364   1137.797   268.000   268.000   10.720   10.720   0.000   0.000
0.03125   0.00675   319.102   1137.797   268.000   268.000   10.720   10.720   0.000   0.000
0.03375   0.00675   322.639   1137.797   268.000   268.000   10.720   10.720   0.000   0.000
0.03625   0.00675   325.858   1137.797   268.000   268.000   10.720   10.720   0.000   0.000
0.03875   0.00675   328.764   1137.797   268.000   268.000   10.720   10.720   0.000   0.000
0.04125   0.00675   331.381   1137.797   268.000   268.000   10.720   10.720   0.000   0.000
0.04375   0.00675   333.733   1137.797   268.000   268.000   10.720   10.720   0.000   0.000
0.04625   0.00675   335.846   1137.797   268.000   268.000   10.720   10.720   0.000   0.000
0.04875   0.00675   337.747   1137.797   268.000   268.000   10.720   0.000   0.000   16.166
0.00125   0.00625   297.364   1137.797   268.000   2.085   0.000   10.720   0.000   0.000
0.00375   0.00625   297.584   1137.797   268.000   2.085   10.720   10.720   0.000   0.000
0.00625   0.00625   298.031   1137.797   268.000   2.085   10.720   10.720   0.000   0.000
0.00875   0.00625   298.714   1137.797   268.000   2.085   10.720   10.720   0.000   0.000
0.01125   0.00625   299.648   1137.797   268.000   2.085   10.720   10.720   0.000   0.000
0.01375   0.00625   300.853   1137.797   268.000   2.085   10.720   10.720   0.000   0.000
0.01625   0.00625   302.353   1137.797   268.000   2.085   10.720   10.720   0.000   0.000
0.01875   0.00625   304.177   1137.797   268.000   2.085   10.720   10.720   0.000   0.000
0.02125   0.00625   306.357   1137.797   268.000   2.085   10.720   10.720   0.000   0.000
0.02375   0.00625   308.925   1137.797   268.000   2.085   10.720   10.720   0.000   0.000
0.02625   0.00625   311.914   1137.797   268.000   2.085   10.720   10.720   0.000   0.000
0.02875   0.00625   315.327   1137.797   268.000   2.085   10.720   10.720   0.000   0.000
0.03125   0.00625   319.040   1137.797   268.000   2.085   10.720   10.720   0.000   0.000
0.03375   0.00625   322.567   1137.797   268.000   2.085   10.720   10.720   0.000   0.000
0.03625   0.00625   325.782   1137.797   268.000   2.085   10.720   10.720   0.000   0.000
0.03875   0.00625   328.685   1137.797   268.000   2.085   10.720   10.720   0.000   0.000
0.04125   0.00625   331.300   1137.797   268.000   2.085   10.720   10.720   0.000   0.000
0.04375   0.00625   333.651   1137.797   268.000   2.085   10.720   10.720   0.000   0.000
0.04625   0.00625   335.767   1137.797   268.000   2.085   10.720   10.720   0.000   0.000
0.04875   0.00625   337.697   1137.797   268.000   2.085   10.720   0.000   0.000   16.166
0.00125   0.00575   296.186   686.719   2.085   1.046   0.000   0.042   0.000   0.000
0.00375   0.00575   296.363   686.719   2.085   1.046   0.042   0.042   0.000   0.000
0.00625   0.00575   296.722   686.719   2.085   1.046   0.042   0.042   0.000   0.000
0.00875   0.00575   297.273   686.719   2.085   1.046   0.042   0.042   0.000   0.000
0.01125   0.00575   298.030   686.719   2.085   1.046   0.042   0.042   0.000   0.000
0.01375   0.00575   299.012   686.719   2.085   1.046   0.042   0.042   0.000   0.000
0.01625   0.00575   300.242   686.719   2.085   1.046   0.042   0.042   0.000   0.000
0.01875   0.00575   301.749   686.719   2.085   1.046   0.042   0.042   0.000   0.000
0.02125   0.00575   303.561   686.719   2.085   1.046   0.042   0.042   0.000   0.000
0.02375   0.00575   305.713   686.719   2.085   1.046   0.042   0.042   0.000   0.000
0.02625   0.00575   308.235   686.719   2.085   1.046   0.042   0.042   0.000   0.000
0.02875   0.00575   311.132   686.719   2.085   1.046   0.042   0.042   0.000   0.000
0.03125   0.00575   314.295   686.719   2.085   1.046   0.042   0.042   0.000   0.000
0.03375   0.00575   317.323   686.719   2.085   1.046   0.042   0.042   0.000   0.000
0.03625   0.00575   320.105   686.719   2.085   1.046   0.042   0.042   0.000   0.000
0.03875   0.00575   322.642   686.719   2.085   1.046   0.042   0.042   0.000   0.000
0.04125   0.00575   324.962   686.719   2.085   1.046   0.042   0.042   0.000   0.000
0.04375   0.00575   327.103   686.719   2.085   1.046   0.042   0.042   0.000   0.000
0.04625   0.00575   329.333   686.719   2.085   1.046   0.042   0.042   0.000   0.000
0.04875   0.00575   336.330   686.719   2.085   1.046   0.042   0.000   0.000   6.064
0.00125   0.00525   294.793   686.719   1.046   1.046   0.000   0.042   0.000   0.000
0.00375   0.00525   294.908   686.719   1.046   1.046   0.042   0.042   0.000   0.000
0.00625   0.00525   295.142   686.719   1.046   1.046   0.042   0.042   0.000   0.000
0.00875   0.00525   295.502   686.719   1.046   1.046   0.042   0.042   0.000   0.000
0.01125   0.00525   296.001   686.719   1.046   1.046   0.042   0.042   0.000   0.000
0.01375   0.00525   296.653   686.719   1.046   1.046   0.042   0.042   0.000   0.000
0.01625   0.00525   297.480   686.719   1.046   1.046   0.042   0.042   0.000   0.000
0.01875   0.00525   298.502   686.719   1.046   1.046   0.042   0.042   0.000   0.000
0.02125   0.00525   299.747   686.719   1.046   1.046   0.042   0.042   0.000   0.000
0.02375   0.00525   301.243   686.719   1.046   1.046   0.042   0.042   0.000   0.000
0.02625   0.00525   303.015   686.719   1.046   1.046   0.042   0.042   0.000   0.000
0.02875   0.00525   305.071   686.719   1.046   1.046   0.042   0.042   0.000   0.000
0.03125   0.00525   307.337   686.719   1.046   1.046   0.042   0.042   0.000   0.000
0.03375   0.00525   309.546   686.719   1.046   1.046   0.042   0.042   0.000   0.000
0.03625   0.00525   311.623   686.719   1.046   1.046   0.042   0.042   0.000   0.000
0.03875   0.00525   313.574   686.719   1.046   1.046   0.042   0.042   0.000   0.000
0.04125   0.00525   315.426   686.719   1.046   1.046   0.042   0.042   0.000   0.000
0.04375   0.00525   317.234   686.719   1.046   1.046   0.042   0.042   0.000   0.000
0.04625   0.00525   319.574   686.719   1.046   1.046   0.042   0.042   0.000   0.000
0.04875   0.00525   331.385   686.719   1.046   1.046   0.042   0.000   0.000   6.070
0.00125   0.00475   294.030   686.719   1.046   1.046   0.000   0.042   0.000   0.000
0.00375   0.00475   294.103   686.719   1.046   1.046   0.042   0.042   0.000   0.000
0.00625   0.00475   294.253   686.719   1.046   1.046   0.042   0.042   0.000   0.000
0.00875   0.00475   294.484   686.719   1.046   1.046   0.042   0.042   0.000   0.000
0.01125   0.00475   294.806   686.719   1.046   1.046   0.042   0.042   0.000   0.000
0.01375   0.00475   295.230   686.719   1.046   1.046   0.042   0.042   0.000   0.000
0.01625   0.00475   295.771   686.719   1.046   1.046   0.042   0.042   0.000   0.000
0.01875   0.00475   296.444   686.719   1.046   1.046   0.042   0.042   0.000   0.000
0.02125   0.00475   297.270   686.719   1.046   1.046   0.042   0.042   0.000   0.000
0.02375   0.00475   298.270   686.719   1.046   1.046   0.042   0.042   0.000   0.000
0.02625   0.00475   299.462   686.719   1.046   1.046   0.042   0.042   0.000   0.000
0.02875   0.00475   300.855   686.719   1.046   1.046   0.042   0.042   0.000   0.000
0.03125   0.00475   302.407   686.719   1.046   1.046   0.042   0.042   0.000   0.000
0.03375   0.00475   303.970   686.719   1.046   1.046   0.042   0.042   0.000   0.000
0.03625   0.00475   305.502   686.719   1.046   1.046   0.042   0.042   0.000   0.000
0.03875   0.00475   307.009   686.719   1.046   1.046   0.042   0.042   0.000   0.000
0.04125   0.00475   308.514   686.719   1.046   1.046   0.042   0.042   0.000   0.000
0.04375   0.00475   310.068   686.719   1.046   1.046   0.042   0.042   0.000   0.000
0.04625   0.00475   312.241   686.719   1.046   1.046   0.042   0.042   0.000   0.000
0.04875   0.00475   323.977   686.719   1.046   1.046   0.042   0.000   0.000   6.079
0.00125   0.00425   293.679   686.719   1.046   2.085   0.000   0.042   0.000   0.000
0.00375   0.00425   293.727   686.719   1.046   2.085   0.042   0.042   0.000   0.000
0.00625   0.00425   293.824   686.719   1.046   2.085   0.042   0.042   0.000   0.000
0.00875   0.00425   293.975   686.719   1.046   2.085   0.042   0.042   0.000   0.000
0.01125   0.00425   294.184   686.719   1.046   2.085   0.042   0.042   0.000   0.000
0.01375   0.00425   294.458   686.719   1.046   2.085   0.042   0.042   0.000   0.000
0.01625   0.00425   294.806   686.719   1.046   2.085   0.042   0.042   0.000   0.000
0.01875   0.00425   295.237   686.719   1.046   2.085   0.042   0.042   0.000   0.000
0.02125   0.00425   295.763   686.719   1.046   2.085   0.042   0.042   0.000   0.000
0.02375   0.00425   296.395   686.719   1.046   2.085   0.042   0.042   0.000   0.000
0.02625   0.00425   297.145   686.719   1.046   2.085   0.042   0.042   0.000   0.000
0.02875   0.00425   298.020   686.719   1.046   2.085   0.042   0.042   0.000   0.000
0.03125   0.00425   299.009   686.719   1.046   2.085   0.042   0.042   0.000   0.000
0.03375   0.00425   300.068   686.719   1.046   2.085   0.042   0.042   0.000   0.000
0.03625   0.00425   301.186   686.719   1.046   2.085   0.042   0.042   0.000   0.000
0.03875   0.00425   302.369   686.719   1.046   2.085   0.042   0.042   0.000   0.000
0.04125   0.00425   303.630   686.719   1.046   2.085   0.042   0.042   0.000   0.000
0.04375   0.00425   304.993   686.719   1.046   2.085   0.042   0.042   0.000   0.000
0.04625   0.00425   306.713   686.719   1.046   2.085   0.042   0.042   0.000   0.000
0.04875   0.00425   313.471   686.719   1.046   2.085   0.042   0.000   0.000   6.091
0.00125   0.00375   293.646   1137.797   2.085   268.000   0.000   10.720   0.000   0.000
0.00375   0.00375   293.686   1137.797   2.085   268.000   10.720   10.720   0.000   0.000
0.00625   0.00375   293.769   1137.797   2.085   268.000   10.720   10.720   0.000   0.000
0.00875   0.00375   293.895   1137.797   2.085   268.000   10.720   10.720   0.000   0.000
0.01125   0.00375   294.069   1137.797   2.085   268.000   10.720   10.720   0.000   0.000
0.01375   0.00375   294.294   1137.797   2.085   268.000   10.720   10.720   0.000   0.000
0.01625   0.00375   294.577   1137.797   2.085   268.000   10.720   10.720   0.000   0.000
0.01875   0.00375   294.923   1137.797   2.085   268.000   10.720   10.720   0.000   0.000
0.02125   0.00375   295.338   1137.797   2.085   268.000   10.720   10.720   0.000   0.000
0.02375   0.00375   295.829   1137.797   2.085   268.000   10.720   10.720   0.000   0.000
0.02625   0.00375   296.403   1137.797   2.085   268.000   10.720   10.720   0.000   0.000
0.02875   0.00375   297.064   1137.797   2.085   268.000   10.720   10.720   0.000   0.000
0.03125   0.00375   297.819   1137.797   2.085   268.000   10.720   10.720   0.000   0.000
0.03375   0.00375   298.671   1137.797   2.085   268.000   10.720   10.720   0.000   0.000
0.03625   0.00375   299.624   1137.797   2.085   268.000   10.720   10.720   0.000   0.000
0.03875   0.00375   300.683   1137.797   2.085   268.000   10.720   10.720   0.000   0.000
0.04125   0.00375   301.855   1137.797   2.085   268.000   10.720   10.720   0.000   0.000
0.04375   0.00375   303.144   1137.797   2.085   268.000   10.720   10.720   0.000   0.000
0.04625   0.00375   304.564   1137.797   2.085   268.000   10.720   10.720   0.000   0.000
0.04875   0.00375   306.153   1137.797   2.085   268.000   10.720   0.000   0.000   16.262
0.00125   0.00325   293.646   1137.797   268.000   268.000   0.000   10.720   0.000   0.000
0.00375   0.00325   293.686   1137.797   268.000   268.000   10.720   10.720   0.000   0.000
0.00625   0.00325   293.768   1137.797   268.000   268.000   10.720   10.720   0.000   0.000
0.00875   0.00325   293.894   1137.797   268.000   268.000   10.720   10.720   0.000   0.000
0.01125   0.00325   294.068   1137.797   268.000   268.000   10.720   10.720   0.000   0.000
0.01375   0.00325   294.293   1137.797   268.000   268.000   10.720   10.720   0.000   0.000
0.01625   0.00325   294.576   1137.797   268.000   268.000   10.720   10.720   0.000   0.000
0.01875   0.00325   294.921   1137.797   268.000   268.000   10.720   10.720   0.000   0.000
0.02125   0.00325   295.335   1137.797   268.000   268.000   10.720   10.720   0.000   0.000
0.02375   0.00325   295.825   1137.797   268.000   268.000   10.720   10.720   0.000   0.000
0.02625   0.00325   296.398   1137.797   268.000   268.000   10.720   10.720   0.000   0.000
0.02875   0.00325   297.058   1137.797   268.000   268.000   10.720   10.720   0.000   0.000
0.03125   0.00325   297.811   1137.797   268.000   268.000   10.720   10.720   0.000   0.000
0.03375   0.00325   298.661   1137.797   268.000   268.000   10.720   10.720   0.000   0.000
0.03625   0.00325   299.613   1137.797   268.000   268.000   10.720   10.720   0.000   0.000
0.03875   0.00325   300.672   1137.797   268.000   268.000   10.720   10.720   0.000   0.000
0.04125   0.00325   301.843   1137.797   268.000   268.000   10.720   10.720   0.000   0.000
0.04375   0.00325   303.131   1137.797   268.000   268.000   10.720   10.720   0.000   0.000
0.04625   0.00325   304.547   1137.797   268.000   268.000   10.720   10.720   0.000   0.000
0.04875   0.00325   306.106   1137.797   268.000   268.000   10.720   0.000   0.000   16.262
0.00125   0.00275   293.645   1137.797   268.000   268.000   0.000   10.720   0.000   0.000
0.00375   0.00275   293.686   1137.797   268.000   268.000   10.720   10.720   0.000   0.000
0.00625   0.00275   293.768   1137.797   268.000   268.000   10.720   10.720   0.000   0.000
0.00875   0.00275   293.894   1137.797   268.000   268.000   10.720   10.720   0.000   0.000
0.01125   0.00275   294.067   1137.797   268.000   268.000   10.720   10.720   0.000   0.000
0.01375   0.00275   294.292   1137.797   268.000   268.000   10.720   10.720   0.000   0.000
0.01625   0.00275   294.574   1137.797   268.000   268.000   10.720   10.720   0.000   0.000
0.01875   0.00275   294.919   1137.797   268.000   268.000   10.720   10.720   0.000   0.000
0.02125   0.00275   295.333   1137.797   268.000   268.000   10.720   10.720   0.000   0.000
0.02375   0.00275   295.822   1137.797   268.000   268.000   10.720   10.720   0.000   0.000
0.02625   0.00275   296.393   1137.797   268.000   268.000   10.720   10.720   0.000   0.000
0.02875   0.00275   297.052   1137.797   268.000   268.000   10.720   10.720   0.000   0.000
0.03125   0.00275   297.804   1137.797   268.000   268.000   10.720   10.720   0.000   0.000
0.03375   0.00275   298.653   1137.797   268.000   268.000   10.720   10.720   0.000   0.000
0.03625   0.00275   299.604   1137.797   268.000   268.000   10.720   10.720   0.000   0.000
0.03875   0.00275   300.662   1137.797   268.000   268.000   10.720   10.720   0.000   0.000
0.04125   0.00275   301.832   1137.797   268.000   268.000   10.720   10.720   0.000   0.000
0.04375   0.00275   303.120   1137.797   268.000   268.000   10.720   10.720   0.000   0.000
0.04625   0.00275   304.531   1137.797   268.000   268.000   10.720   10.720   0.000   0.000
0.04875   0.00275   306.067   1137.797   268.000   268.000   10.720   0.000   0.000   16.262
0.00125   0.00225   293.645   1137.797   268.000   268.000   0.000   10.720   0.000   0.000
0.00375   0.00225   293.686   1137.797   268.000   268.000   10.720   10.720   0.000   0.000
0.00625   0.00225   293.768   1137.797   268.000   268.000   10.720   10.720   0.000   0.000
0.00875   0.00225   293.894   1137.797   268.000   268.000   10.720   10.720   0.000   0.000
0.01125   0.00225   294.067   1137.797   268.000   268.000   10.720   10.720   0.000   0.000
0.01375   0.00225   294.291   1137.797   268.000   268.000   10.720   10.720   0.000   0.000
0.01625   0.00225   294.573   1137.797   268.000   268.000   10.720   10.720   0.000   0.000
0.01875   0.00225   294.917   1137.797   268.000   268.000   10.720   10.720   0.000   0.000
0.02125   0.00225   295.331   1137.797   268.000   268.000   10.720   10.720   0.000   0.000
0.02375   0.00225   295.819   1137.797   268.000   268.000   10.720   10.720   0.000   0.000
0.02625   0.00225   296.390   1137.797   268.000   268.000   10.720   10.720   0.000   0.000
0.02875   0.00225   297.048   1137.797   268.000   268.000   10.720   10.720   0.000   0.000
0.03125   0.00225   297.798   1137.797   268.000   268.000   10.720   10.720   0.000   0.000
0.03375   0.00225   298.647   1137.797   268.000   268.000   10.720   10.720   0.000   0.000
0.03625   0.00225   299.597   1137.797   268.000   268.000   10.720   10.720   0.000   0.000
0.03875   0.00225   300.654   1137.797   268.000   268.000   10.720   10.720   0.000   0.000
0.04125   0.00225   301.824   1137.797   268.000   268.000   10.720   10.720   0.000   0.000
0.04375   0.00225   303.110   1137.797   268.000   268.000   10.720   10.720   0.000   0.000
0.04625   0.00225   304.517   1137.797   268.000   268.000   10.720   10.720   0.000   0.000
0.04875   0.00225   306.036   1137.797   268.000   268.000   10.720   0.000   0.000   16.262
0.00125   0.00175   293.645   1137.797   268.000   268.000   0.000   10.720   0.000   0.000
0.00375   0.00175   293.685   1137.797   268.000   268.000   10.720   10.720   0.000   0.000
0.00625   0.00175   293.767   1137.797   268.000   268.000   10.720   10.720   0.000   0.000
0.00875   0.00175   293.893   1137.797   268.000   268.000   10.720   10.720   0.000   0.000
0.01125   0.00175   294.066   1137.797   268.000   268.000   10.720   10.720   0.000   0.000
0.01375   0.00175   294.291   1137.797   268.000   268.000   10.720   10.720   0.000   0.000
0.01625   0.00175   294.572   1137.797   268.000   268.000   10.720   10.720   0.000   0.000
0.01875   0.00175   294.916   1137.797   268.000   268.000   10.720   10.720   0.000   0.000
0.02125   0.00175   295.329   1137.797   268.000   268.000   10.720   10.720   0.000   0.000