VARIABLES = X, Y, T, ap,an,as,aw,ae,sp,su
ZONE I=20,J=20, F=POINT,t="6.648"
0.00125   0.00975   293.101   1137.797   0.000   268.000   0.000   10.720   0.000   -0.000
0.00375   0.00975   293.128   1137.797   0.000   268.000   10.720   10.720   0.000   -0.000
0.00625   0.00975   293.189   1137.797   0.000   268.000   10.720   10.720   0.000   -0.000
0.00875   0.00975   293.292   1137.797   0.000   268.000   10.720   10.720   0.000   -0.000
0.01125   0.00975   293.455   1137.797   0.000   268.000   10.720   10.720   0.000   -0.000
0.01375   0.00975   293.701   1137.797   0.000   268.000   10.720   10.720   0.000   -0.001
0.01625   0.00975   294.061   1137.797   0.000   268.000   10.720   10.720   0.000   -0.001
0.01875   0.00975   294.575   1137.797   0.000   268.000   10.720   10.720   0.000   -0.001
0.02125   0.00975   295.293   1137.797   0.000   268.000   10.720   10.720   0.000   -0.002
0.02375   0.00975   296.278   1137.797   0.000   268.000   10.720   10.720   0.000   -0.002
0.02625   0.00975   297.606   1137.797   0.000   268.000   10.720   10.720   0.000   -0.003
0.02875   0.00975   299.406   1137.797   0.000   268.000   10.720   10.720   0.000   -0.005
0.03125   0.00975   302.144   1137.797   0.000   268.000   10.720   10.720   0.000   81.352
0.03375   0.00975   304.092   1137.797   0.000   268.000   10.720   10.720   0.000   81.326
0.03625   0.00975   305.725   1137.797   0.000   268.000   10.720   10.720   0.000   81.304
0.03875   0.00975   307.181   1137.797   0.000   268.000   10.720   10.720   0.000   81.284
0.04125   0.00975   308.550   1137.797   0.000   268.000   10.720   10.720   0.000   81.264
0.04375   0.00975   309.907   1137.797   0.000   268.000   10.720   10.720   0.000   81.245
0.04625   0.00975   311.311   1137.797   0.000   268.000   10.720   10.720   0.000   81.225
0.04875   0.00975   312.785   1137.797   0.000   268.000   10.720   0.000   0.000   97.447
0.00125   0.00925   293.100   1137.797   268.000   268.000   0.000   10.720   0.000   0.000
0.00375   0.00925   293.128   1137.797   268.000   268.000   10.720   10.720   0.000   0.000
0.00625   0.00925   293.189   1137.797   268.000   268.000   10.720   10.720   0.000   0.000
0.00875   0.00925   293.292   1137.797   268.000   268.000   10.720   10.720   0.000   0.000
0.01125   0.00925   293.455   1137.797   268.000   268.000   10.720   10.720   0.000   0.000
0.01375   0.00925   293.701   1137.797   268.000   268.000   10.720   10.720   0.000   0.000
0.01625   0.00925   294.060   1137.797   268.000   268.000   10.720   10.720   0.000   0.000
0.01875   0.00925   294.574   1137.797   268.000   268.000   10.720   10.720   0.000   0.000
0.02125   0.00925   295.292   1137.797   268.000   268.000   10.720   10.720   0.000   0.000
0.02375   0.00925   296.276   1137.797   268.000   268.000   10.720   10.720   0.000   0.000
0.02625   0.00925   297.602   1137.797   268.000   268.000   10.720   10.720   0.000   0.000
0.02875   0.00925   299.386   1137.797   268.000   268.000   10.720   10.720   0.000   0.000
0.03125   0.00925   301.893   1137.797   268.000   268.000   10.720   10.720   0.000   0.000
0.03375   0.00925   303.826   1137.797   268.000   268.000   10.720   10.720   0.000   0.000
0.03625   0.00925   305.456   1137.797   268.000   268.000   10.720   10.720   0.000   0.000
0.03875   0.00925   306.911   1137.797   268.000   268.000   10.720   10.720   0.000   0.000
0.04125   0.00925   308.280   1137.797   268.000   268.000   10.720   10.720   0.000   0.000
0.04375   0.00925   309.637   1137.797   268.000   268.000   10.720   10.720   0.000   0.000
0.04625   0.00925   311.041   1137.797   268.000   268.000   10.720   10.720   0.000   0.000
0.04875   0.00925   312.518   1137.797   268.000   268.000   10.720   0.000   0.000   16.244
0.00125   0.00875   293.100   1137.797   268.000   268.000   0.000   10.720   0.000   0.000
0.00375   0.00875   293.128   1137.797   268.000   268.000   10.720   10.720   0.000   0.000
0.00625   0.00875   293.188   1137.797   268.000   268.000   10.720   10.720   0.000   0.000
0.00875   0.00875   293.292   1137.797   268.000   268.000   10.720   10.720   0.000   0.000
0.01125   0.00875   293.455   1137.797   268.000   268.000   10.720   10.720   0.000   0.000
0.01375   0.00875   293.700   1137.797   268.000   268.000   10.720   10.720   0.000   0.000
0.01625   0.00875   294.060   1137.797   268.000   268.000   10.720   10.720   0.000   0.000
0.01875   0.00875   294.573   1137.797   268.000   268.000   10.720   10.720   0.000   0.000
0.02125   0.00875   295.291   1137.797   268.000   268.000   10.720   10.720   0.000   0.000
0.02375   0.00875   296.273   1137.797   268.000   268.000   10.720   10.720   0.000   0.000
0.02625   0.00875   297.595   1137.797   268.000   268.000   10.720   10.720   0.000   0.000
0.02875   0.00875   299.355   1137.797   268.000   268.000   10.720   10.720   0.000   0.000
0.03125   0.00875   301.686   1137.797   268.000   268.000   10.720   10.720   0.000   0.000
0.03375   0.00875   303.595   1137.797   268.000   268.000   10.720   10.720   0.000   0.000
0.03625   0.00875   305.222   1137.797   268.000   268.000   10.720   10.720   0.000   0.000
0.03875   0.00875   306.675   1137.797   268.000   268.000   10.720   10.720   0.000   0.000
0.04125   0.00875   308.043   1137.797   268.000   268.000   10.720   10.720   0.000   0.000
0.04375   0.00875   309.401   1137.797   268.000   268.000   10.720   10.720   0.000   0.000
0.04625   0.00875   310.805   1137.797   268.000   268.000   10.720   10.720   0.000   0.000
0.04875   0.00875   312.286   1137.797   268.000   268.000   10.720   0.000   0.000   16.245
0.00125   0.00825   293.100   1137.797   268.000   268.000   0.000   10.720   0.000   0.000
0.00375   0.00825   293.128   1137.797   268.000   268.000   10.720   10.720   0.000   0.000
0.00625   0.00825   293.188   1137.797   268.000   268.000   10.720   10.720   0.000   0.000
0.00875   0.00825   293.291   1137.797   268.000   268.000   10.720   10.720   0.000   0.000
0.01125   0.00825   293.454   1137.797   268.000   268.000   10.720   10.720   0.000   0.000
0.01375   0.00825   293.699   1137.797   268.000   268.000   10.720   10.720   0.000   0.000
0.01625   0.00825   294.058   1137.797   268.000   268.000   10.720   10.720   0.000   0.000
0.01875   0.00825   294.571   1137.797   268.000   268.000   10.720   10.720   0.000   0.000
0.02125   0.00825   295.288   1137.797   268.000   268.000   10.720   10.720   0.000   0.000
0.02375   0.00825   296.269   1137.797   268.000   268.000   10.720   10.720   0.000   0.000
0.02625   0.00825   297.585   1137.797   268.000   268.000   10.720   10.720   0.000   0.000
0.02875   0.00825   299.320   1137.797   268.000   268.000   10.720   10.720   0.000   0.000
0.03125   0.00825   301.517   1137.797   268.000   268.000   10.720   10.720   0.000   0.000
0.03375   0.00825   303.401   1137.797   268.000   268.000   10.720   10.720   0.000   0.000
0.03625   0.00825   305.022   1137.797   268.000   268.000   10.720   10.720   0.000   0.000
0.03875   0.00825   306.473   1137.797   268.000   268.000   10.720   10.720   0.000   0.000
0.04125   0.00825   307.840   1137.797   268.000   268.000   10.720   10.720   0.000   0.000
0.04375   0.00825   309.197   1137.797   268.000   268.000   10.720   10.720   0.000   0.000
0.04625   0.00825   310.603   1137.797   268.000   268.000   10.720   10.720   0.000   0.000
0.04875   0.00825   312.090   1137.797   268.000   268.000   10.720   0.000   0.000   16.246
0.00125   0.00775   293.100   1137.797   268.000   268.000   0.000   10.720   0.000   0.000
0.00375   0.00775   293.128   1137.797   268.000   268.000   10.720   10.720   0.000   0.000
0.00625   0.00775   293.188   1137.797   268.000   268.000   10.720   10.720   0.000   0.000
0.00875   0.00775   293.291   1137.797   268.000   268.000   10.720   10.720   0.000   0.000
0.01125   0.00775   293.453   1137.797   268.000   268.000   10.720   10.720   0.000   0.000
0.01375   0.00775   293.698   1137.797   268.000   268.000   10.720   10.720   0.000   0.000
0.01625   0.00775   294.056   1137.797   268.000   268.000   10.720   10.720   0.000   0.000
0.01875   0.00775   294.568   1137.797   268.000   268.000   10.720   10.720   0.000   0.000
0.02125   0.00775   295.284   1137.797   268.000   268.000   10.720   10.720   0.000   0.000
0.02375   0.00775   296.263   1137.797   268.000   268.000   10.720   10.720   0.000   0.000
0.02625   0.00775   297.573   1137.797   268.000   268.000   10.720   10.720   0.000   0.000
0.02875   0.00775   299.284   1137.797   268.000   268.000   10.720   10.720   0.000   0.000
0.03125   0.00775   301.382   1137.797   268.000   268.000   10.720   10.720   0.000   0.000
0.03375   0.00775   303.241   1137.797   268.000   268.000   10.720   10.720   0.000   0.000
0.03625   0.00775   304.856   1137.797   268.000   268.000   10.720   10.720   0.000   0.000
0.03875   0.00775   306.305   1137.797   268.000   268.000   10.720   10.720   0.000   0.000
0.04125   0.00775   307.670   1137.797   268.000   268.000   10.720   10.720   0.000   0.000
0.04375   0.00775   309.026   1137.797   268.000   268.000   10.720   10.720   0.000   0.000
0.04625   0.00775   310.433   1137.797   268.000   268.000   10.720   10.720   0.000   0.000
0.04875   0.00775   311.930   1137.797   268.000   268.000   10.720   0.000   0.000   16.246
0.00125   0.00725   293.100   1137.797   268.000   268.000   0.000   10.720   0.000   0.000
0.00375   0.00725   293.127   1137.797   268.000   268.000   10.720   10.720   0.000   0.000
0.00625   0.00725   293.187   1137.797   268.000   268.000   10.720   10.720   0.000   0.000
0.00875   0.00725   293.290   1137.797   268.000   268.000   10.720   10.720   0.000   0.000
0.01125   0.00725   293.452   1137.797   268.000   268.000   10.720   10.720   0.000   0.000
0.01375   0.00725   293.696   1137.797   268.000   268.000   10.720   10.720   0.000   0.000
0.01625   0.00725   294.054   1137.797   268.000   268.000   10.720   10.720   0.000   0.000
0.01875   0.00725   294.565   1137.797   268.000   268.000   10.720   10.720   0.000   0.000
0.02125   0.00725   295.279   1137.797   268.000   268.000   10.720   10.720   0.000   0.000
0.02375   0.00725   296.256   1137.797   268.000   268.000   10.720   10.720   0.000   0.000
0.02625   0.00725   297.561   1137.797   268.000   268.000   10.720   10.720   0.000   0.000
0.02875   0.00725   299.250   1137.797   268.000   268.000   10.720   10.720   0.000   0.000
0.03125   0.00725   301.277   1137.797   268.000   268.000   10.720   10.720   0.000   0.000
0.03375   0.00725   303.116   1137.797   268.000   268.000   10.720   10.720   0.000   0.000
0.03625   0.00725   304.724   1137.797   268.000   268.000   10.720   10.720   0.000   0.000
0.03875   0.00725   306.170   1137.797   268.000   268.000   10.720   10.720   0.000   0.000
0.04125   0.00725   307.533   1137.797   268.000   268.000   10.720   10.720   0.000   0.000
0.04375   0.00725   308.888   1137.797   268.000   268.000   10.720   10.720   0.000   0.000
0.04625   0.00725   310.297   1137.797   268.000   268.000   10.720   10.720   0.000   0.000
0.04875   0.00725   311.807   1137.797   268.000   268.000   10.720   0.000   0.000   16.246
0.00125   0.00675   293.099   1137.797   268.000   268.000   0.000   10.720   0.000   0.000
0.00375   0.00675   293.127   1137.797   268.000   268.000   10.720   10.720   0.000   0.000
0.00625   0.00675   293.187   1137.797   268.000   268.000   10.720   10.720   0.000   0.000
0.00875   0.00675   293.289   1137.797   268.000   268.000   10.720   10.720   0.000   0.000
0.01125   0.00675   293.451   1137.797   268.000   268.000   10.720   10.720   0.000   0.000
0.01375   0.00675   293.694   1137.797   268.000   268.000   10.720   10.720   0.000   0.000
0.01625   0.00675   294.051   1137.797   268.000   268.000   10.720   10.720   0.000   0.000
0.01875   0.00675   294.561   1137.797   268.000   268.000   10.720   10.720   0.000   0.000
0.02125   0.00675   295.273   1137.797   268.000   268.000   10.720   10.720   0.000   0.000
0.02375   0.00675   296.247   1137.797   268.000   268.000   10.720   10.720   0.000   0.000
0.02625   0.00675   297.547   1137.797   268.000   268.000   10.720   10.720   0.000   0.000
0.02875   0.00675   299.221   1137.797   268.000   268.000   10.720   10.720   0.000   0.000
0.03125   0.00675   301.201   1137.797   268.000   268.000   10.720   10.720   0.000   0.000
0.03375   0.00675   303.023   1137.797   268.000   268.000   10.720   10.720   0.000   0.000
0.03625   0.00675   304.626   1137.797   268.000   268.000   10.720   10.720   0.000   0.000
0.03875   0.00675   306.069   1137.797   268.000   268.000   10.720   10.720   0.000   0.000
0.04125   0.00675   307.430   1137.797   268.000   268.000   10.720   10.720   0.000   0.000
0.04375   0.00675   308.782   1137.797   268.000   268.000   10.720   10.720   0.000   0.000
0.04625   0.00675   310.193   1137.797   268.000   268.000   10.720   10.720   0.000   0.000
0.04875   0.00675   311.721   1137.797   268.000   268.000   10.720   0.000   0.000   16.247
0.00125   0.00625   293.099   1137.797   268.000   2.085   0.000   10.720   0.000   0.000
0.00375   0.00625   293.126   1137.797   268.000   2.085   10.720   10.720   0.000   0.000
0.00625   0.00625   293.186   1137.797   268.000   2.085   10.720   10.720   0.000   0.000
0.00875   0.00625   293.288   1137.797   268.000   2.085   10.720   10.720   0.000   0.000
0.01125   0.00625   293.449   1137.797   268.000   2.085   10.720   10.720   0.000   0.000
0.01375   0.00625   293.692   1137.797   268.000   2.085   10.720   10.720   0.000   0.000
0.01625   0.00625   294.048   1137.797   268.000   2.085   10.720   10.720   0.000   0.000
0.01875   0.00625   294.556   1137.797   268.000   2.085   10.720   10.720   0.000   0.000
0.02125   0.00625   295.267   1137.797   268.000   2.085   10.720   10.720   0.000   0.000
0.02375   0.00625   296.238   1137.797   268.000   2.085   10.720   10.720   0.000   0.000
0.02625   0.00625   297.534   1137.797   268.000   2.085   10.720   10.720   0.000   0.000
0.02875   0.00625   299.197   1137.797   268.000   2.085   10.720   10.720   0.000   0.000
0.03125   0.00625   301.152   1137.797   268.000   2.085   10.720   10.720   0.000   0.000
0.03375   0.00625   302.964   1137.797   268.000   2.085   10.720   10.720   0.000   0.000
0.03625   0.00625   304.562   1137.797   268.000   2.085   10.720   10.720   0.000   0.000
0.03875   0.00625   306.002   1137.797   268.000   2.085   10.720   10.720   0.000   0.000
0.04125   0.00625   307.359   1137.797   268.000   2.085   10.720   10.720   0.000   0.000
0.04375   0.00625   308.710   1137.797   268.000   2.085   10.720   10.720   0.000   0.000
0.04625   0.00625   310.120   1137.797   268.000   2.085   10.720   10.720   0.000   0.000
0.04875   0.00625   311.672   1137.797   268.000   2.085   10.720   0.000   0.000   16.247
0.00125   0.00575   293.043   686.719   2.085   1.046   0.000   0.042   0.000   0.000
0.00375   0.00575   293.056   686.719   2.085   1.046   0.042   0.042   0.000   0.000
0.00625   0.00575   293.087   686.719   2.085   1.046   0.042   0.042   0.000   0.000
0.00875   0.00575   293.140   686.719   2.085   1.046   0.042   0.042   0.000   0.000
0.01125   0.00575   293.228   686.719   2.085   1.046   0.042   0.042   0.000   0.000
0.01375   0.00575   293.364   686.719   2.085   1.046   0.042   0.042   0.000   0.000
0.01625   0.00575   293.571   686.719   2.085   1.046   0.042   0.042   0.000   0.000
0.01875   0.00575   293.878   686.719   2.085   1.046   0.042   0.042   0.000   0.000
0.02125   0.00575   294.323   686.719   2.085   1.046   0.042   0.042   0.000   0.000
0.02375   0.00575   294.951   686.719   2.085   1.046   0.042   0.042   0.000   0.000
0.02625   0.00575   295.817   686.719   2.085   1.046   0.042   0.042   0.000   0.000
0.02875   0.00575   296.958   686.719   2.085   1.046   0.042   0.042   0.000   0.000
0.03125   0.00575   298.317   686.719   2.085   1.046   0.042   0.042   0.000   0.000
0.03375   0.00575   299.563   686.719   2.085   1.046   0.042   0.042   0.000   0.000
0.03625   0.00575   300.646   686.719   2.085   1.046   0.042   0.042   0.000   0.000
0.03875   0.00575   301.619   686.719   2.085   1.046   0.042   0.042   0.000   0.000
0.04125   0.00575   302.557   686.719   2.085   1.046   0.042   0.042   0.000   0.000
0.04375   0.00575   303.537   686.719   2.085   1.046   0.042   0.042   0.000   0.000
0.04625   0.00575   304.761   686.719   2.085   1.046   0.042   0.042   0.000   0.000
0.04875   0.00575   310.419   686.719   2.085   1.046   0.042   0.000   0.000   6.094
0.00125   0.00525   293.011   686.719   1.046   1.046   0.000   0.042   0.000   0.000
0.00375   0.00525   293.015   686.719   1.046   1.046   0.042   0.042   0.000   0.000
0.00625   0.00525   293.024   686.719   1.046   1.046   0.042   0.042   0.000   0.000
0.00875   0.00525   293.041   686.719   1.046   1.046   0.042   0.042   0.000   0.000
0.01125   0.00525   293.070   686.719   1.046   1.046   0.042   0.042   0.000   0.000
0.01375   0.00525   293.117   686.719   1.046   1.046   0.042   0.042   0.000   0.000
0.01625   0.00525   293.193   686.719   1.046   1.046   0.042   0.042   0.000   0.000
0.01875   0.00525   293.312   686.719   1.046   1.046   0.042   0.042   0.000   0.000
0.02125   0.00525   293.492   686.719   1.046   1.046   0.042   0.042   0.000   0.000
0.02375   0.00525   293.762   686.719   1.046   1.046   0.042   0.042   0.000   0.000
0.02625   0.00525   294.151   686.719   1.046   1.046   0.042   0.042   0.000   0.000
0.02875   0.00525   294.687   686.719   1.046   1.046   0.042   0.042   0.000   0.000
0.03125   0.00525   295.340   686.719   1.046   1.046   0.042   0.042   0.000   0.000
0.03375   0.00525   295.935   686.719   1.046   1.046   0.042   0.042   0.000   0.000
0.03625   0.00525   296.452   686.719   1.046   1.046   0.042   0.042   0.000   0.000
0.03875   0.00525   296.932   686.719   1.046   1.046   0.042   0.042   0.000   0.000
0.04125   0.00525   297.432   686.719   1.046   1.046   0.042   0.042   0.000   0.000
0.04375   0.00525   298.019   686.719   1.046   1.046   0.042   0.042   0.000   0.000
0.04625   0.00525   299.053   686.719   1.046   1.046   0.042   0.042   0.000   0.000
0.04875   0.00525   308.224   686.719   1.046   1.046   0.042   0.000   0.000   6.096
0.00125   0.00475   293.003   686.719   1.046   1.046   0.000   0.042   0.000   0.000
0.00375   0.00475   293.004   686.719   1.046   1.046   0.042   0.042   0.000   0.000
0.00625   0.00475   293.006   686.719   1.046   1.046   0.042   0.042   0.000   0.000
0.00875   0.00475   293.011   686.719   1.046   1.046   0.042   0.042   0.000   0.000
0.01125   0.00475   293.020   686.719   1.046   1.046   0.042   0.042   0.000   0.000
0.01375   0.00475   293.036   686.719   1.046   1.046   0.042   0.042   0.000   0.000
0.01625   0.00475   293.062   686.719   1.046   1.046   0.042   0.042   0.000   0.000
0.01875   0.00475   293.105   686.719   1.046   1.046   0.042   0.042   0.000   0.000
0.02125   0.00475   293.175   686.719   1.046   1.046   0.042   0.042   0.000   0.000
0.02375   0.00475   293.284   686.719   1.046   1.046   0.042   0.042   0.000   0.000
0.02625   0.00475   293.451   686.719   1.046   1.046   0.042   0.042   0.000   0.000
0.02875   0.00475   293.691   686.719   1.046   1.046   0.042   0.042   0.000   0.000
0.03125   0.00475   293.998   686.719   1.046   1.046   0.042   0.042   0.000   0.000
0.03375   0.00475   294.299   686.719   1.046   1.046   0.042   0.042   0.000   0.000
0.03625   0.00475   294.593   686.719   1.046   1.046   0.042   0.042   0.000   0.000
0.03875   0.00475   294.915   686.719   1.046   1.046   0.042   0.042   0.000   0.000
0.04125   0.00475   295.306   686.719   1.046   1.046   0.042   0.042   0.000   0.000
0.04375   0.00475   295.823   686.719   1.046   1.046   0.042   0.042   0.000   0.000
0.04625   0.00475   296.815   686.719   1.046   1.046   0.042   0.042   0.000   0.000
0.04875   0.00475   305.968   686.719   1.046   1.046   0.042   0.000   0.000   6.098
0.00125   0.00425   293.001   686.719   1.046   2.085   0.000   0.042   0.000   0.000
0.00375   0.00425   293.001   686.719   1.046   2.085   0.042   0.042   0.000   0.000
0.00625   0.00425   293.003   686.719   1.046   2.085   0.042   0.042   0.000   0.000
0.00875   0.00425   293.005   686.719   1.046   2.085   0.042   0.042   0.000   0.000
0.01125   0.00425   293.009   686.719   1.046   2.085   0.042   0.042   0.000   0.000
0.01375   0.00425   293.017   686.719   1.046   2.085   0.042   0.042   0.000   0.000
0.01625   0.00425   293.030   686.719   1.046   2.085   0.042   0.042   0.000   0.000
0.01875   0.00425   293.053   686.719   1.046   2.085   0.042   0.042   0.000   0.000
0.02125   0.00425   293.090   686.719   1.046   2.085   0.042   0.042   0.000   0.000
0.02375   0.00425   293.151   686.719   1.046   2.085   0.042   0.042   0.000   0.000
0.02625   0.00425   293.246   686.719   1.046   2.085   0.042   0.042   0.000   0.000
0.02875   0.00425   293.388   686.719   1.046   2.085   0.042   0.042   0.000   0.000
0.03125   0.00425   293.587   686.719   1.046   2.085   0.042   0.042   0.000   0.000
0.03375   0.00425   293.835   686.719   1.046   2.085   0.042   0.042   0.000   0.000
0.03625   0.00425   294.151   686.719   1.046   2.085   0.042   0.042   0.000   0.000
0.03875   0.00425   294.564   686.719   1.046   2.085   0.042   0.042   0.000   0.000
0.04125   0.00425   295.108   686.719   1.046   2.085   0.042   0.042   0.000   0.000
0.04375   0.00425   295.824   686.719   1.046   2.085   0.042   0.042   0.000   0.000
0.04625   0.00425   296.889   686.719   1.046   2.085   0.042   0.042   0.000   0.000
0.04875   0.00425   302.474   686.719   1.046   2.085   0.042   0.000   0.000   6.102
0.00125   0.00375   293.002   1137.797   2.085   268.000   0.000   10.720   0.000   0.000
0.00375   0.00375   293.002   1137.797   2.085   268.000   10.720   10.720   0.000   0.000
0.00625   0.00375   293.004   1137.797   2.085   268.000   10.720   10.720   0.000   0.000
0.00875   0.00375   293.008   1137.797   2.085   268.000   10.720   10.720   0.000   0.000
0.01125   0.00375   293.014   1137.797   2.085   268.000   10.720   10.720   0.000   0.000
0.01375   0.00375   293.024   1137.797   2.085   268.000   10.720   10.720   0.000   0.000
0.01625   0.00375   293.042   1137.797   2.085   268.000   10.720   10.720   0.000   0.000
0.01875   0.00375   293.071   1137.797   2.085   268.000   10.720   10.720   0.000   0.000
0.02125   0.00375   293.117   1137.797   2.085   268.000   10.720   10.720   0.000   0.000
0.02375   0.00375   293.188   1137.797   2.085   268.000   10.720   10.720   0.000   0.000
0.02625   0.00375   293.294   1137.797   2.085   268.000   10.720   10.720   0.000   0.000
0.02875   0.00375   293.450   1137.797   2.085   268.000   10.720   10.720   0.000   0.000
0.03125   0.00375   293.672   1137.797   2.085   268.000   10.720   10.720   0.000   0.000
0.03375   0.00375   293.980   1137.797   2.085   268.000   10.720   10.720   0.000   0.000
0.03625   0.00375   294.399   1137.797   2.085   268.000   10.720   10.720   0.000   0.000
0.03875   0.00375   294.954   1137.797   2.085   268.000   10.720   10.720   0.000   0.000
0.04125   0.00375   295.674   1137.797   2.085   268.000   10.720   10.720   0.000   0.000
0.04375   0.00375   296.588   1137.797   2.085   268.000   10.720   10.720   0.000   0.000
0.04625   0.00375   297.730   1137.797   2.085   268.000   10.720   10.720   0.000   0.000
0.04875   0.00375   299.154   1137.797   2.085   268.000   10.720   0.000   0.000   16.279
0.00125   0.00325   293.002   1137.797   268.000   268.000   0.000   10.720   0.000   0.000
0.00375   0.00325   293.002   1137.797   268.000   268.000   10.720   10.720   0.000   0.000
0.00625   0.00325   293.004   1137.797   268.000   268.000   10.720   10.720   0.000   0.000
0.00875   0.00325   293.008   1137.797   268.000   268.000   10.720   10.720   0.000   0.000
0.01125   0.00325   293.014   1137.797   268.000   268.000   10.720   10.720   0.000   0.000
0.01375   0.00325   293.024   1137.797   268.000   268.000   10.720   10.720   0.000   0.000
0.01625   0.00325   293.042   1137.797   268.000   268.000   10.720   10.720   0.000   0.000
0.01875   0.00325   293.071   1137.797   268.000   268.000   10.720   10.720   0.000   0.000
0.02125   0.00325   293.117   1137.797   268.000   268.000   10.720   10.720   0.000   0.000
0.02375   0.00325   293.188   1137.797   268.000   268.000   10.720   10.720   0.000   0.000
0.02625   0.00325   293.294   1137.797   268.000   268.000   10.720   10.720   0.000   0.000
0.02875   0.00325   293.450   1137.797   268.000   268.000   10.720   10.720   0.000   0.000
0.03125   0.00325   293.672   1137.797   268.000   268.000   10.720   10.720   0.000   0.000
0.03375   0.00325   293.981   1137.797   268.000   268.000   10.720   10.720   0.000   0.000
0.03625   0.00325   294.400   1137.797   268.000   268.000   10.720   10.720   0.000   0.000
0.03875   0.00325   294.956   1137.797   268.000   268.000   10.720   10.720   0.000   0.000
0.04125   0.00325   295.678   1137.797   268.000   268.000   10.720   10.720   0.000   0.000
0.04375   0.00325   296.593   1137.797   268.000   268.000   10.720   10.720   0.000   0.000
0.04625   0.00325   297.733   1137.797   268.000   268.000   10.720   10.720   0.000   0.000
0.04875   0.00325   299.134   1137.797   268.000   268.000   10.720   0.000   0.000   16.279
0.00125   0.00275   293.002   1137.797   268.000   268.000   0.000   10.720   0.000   0.000
0.00375   0.00275   293.002   1137.797   268.000   268.000   10.720   10.720   0.000   0.000
0.00625   0.00275   293.004   1137.797   268.000   268.000   10.720   10.720   0.000   0.000
0.00875   0.00275   293.008   1137.797   268.000   268.000   10.720   10.720   0.000   0.000
0.01125   0.00275   293.014   1137.797   268.000   268.000   10.720   10.720   0.000   0.000
0.01375   0.00275   293.025   1137.797   268.000   268.000   10.720   10.720   0.000   0.000
0.01625   0.00275   293.042   1137.797   268.000   268.000   10.720   10.720   0.000   0.000
0.01875   0.00275   293.071   1137.797   268.000   268.000   10.720   10.720   0.000   0.000
0.02125   0.00275   293.117   1137.797   268.000   268.000   10.720   10.720   0.000   0.000
0.02375   0.00275   293.188   1137.797   268.000   268.000   10.720   10.720   0.000   0.000
0.02625   0.00275   293.295   1137.797   268.000   268.000   10.720   10.720   0.000   0.000
0.02875   0.00275   293.451   1137.797   268.000   268.000   10.720   10.720   0.000   0.000
0.03125   0.00275   293.673   1137.797   268.000   268.000   10.720   10.720   0.000   0.000
0.03375   0.00275   293.982   1137.797   268.000   268.000   10.720   10.720   0.000   0.000
0.03625   0.00275   294.402   1137.797   268.000   268.000   10.720   10.720   0.000   0.000
0.03875   0.00275   294.959   1137.797   268.000   268.000   10.720   10.720   0.000   0.000
0.04125   0.00275   295.681   1137.797   268.000   268.000   10.720   10.720   0.000   0.000
0.04375   0.00275   296.597   1137.797   268.000   268.000   10.720   10.720   0.000   0.000
0.04625   0.00275   297.736   1137.797   268.000   268.000   10.720   10.720   0.000   0.000
0.04875   0.00275   299.118   1137.797   268.000   268.000   10.720   0.000   0.000   16.279
0.00125   0.00225   293.002   1137.797   268.000   268.000   0.000   10.720   0.000   0.000
0.00375   0.00225   293.002   1137.797   268.000   268.000   10.720   10.720   0.000   0.000
0.00625   0.00225   293.004   1137.797   268.000   268.000   10.720   10.720   0.000   0.000
0.00875   0.00225   293.008   1137.797   268.000   268.000   10.720   10.720   0.000   0.000
0.01125   0.00225   293.014   1137.797   268.000   268.000   10.720   10.720   0.000   0.000
0.01375   0.00225   293.025   1137.797   268.000   268.000   10.720   10.720   0.000   0.000
0.01625   0.00225   293.042   1137.797   268.000   268.000   10.720   10.720   0.000   0.000
0.01875   0.00225   293.071   1137.797   268.000   268.000   10.720   10.720   0.000   0.000
0.02125   0.00225   293.117   1137.797   268.000   268.000   10.720   10.720   0.000   0.000
0.02375   0.00225   293.188   1137.797   268.000   268.000   10.720   10.720   0.000   0.000
0.02625   0.00225   293.295   1137.797   268.000   268.000   10.720   10.720   0.000   0.000
0.02875   0.00225   293.451   1137.797   268.000   268.000   10.720   10.720   0.000   0.000
0.03125   0.00225   293.673   1137.797   268.000   268.000   10.720   10.720   0.000   0.000
0.03375   0.00225   293.983   1137.797   268.000   268.000   10.720   10.720   0.000   0.000
0.03625   0.00225   294.403   1137.797   268.000   268.000   10.720   10.720   0.000   0.000
0.03875   0.00225   294.961   1137.797   268.000   268.000   10.720   10.720   0.000   0.000
0.04125   0.00225   295.684   1137.797   268.000   268.000   10.720   10.720   0.000   0.000
0.04375   0.00225   296.601   1137.797   268.000   268.000   10.720   10.720   0.000   0.000
0.04625   0.00225   297.737   1137.797   268.000   268.000   10.720   10.720   0.000   0.000
0.04875   0.00225   299.106   1137.797   268.000   268.000   10.720   0.000   0.000   16.279
0.00125   0.00175   293.002   1137.797   268.000   268.000   0.000   10.720   0.000   0.000
0.00375   0.00175   293.002   1137.797   268.000   268.000   10.720   10.720   0.000   0.000
0.00625   0.00175   293.004   1137.797   268.000   268.000   10.720   10.720   0.000   0.000
0.00875   0.00175   293.008   1137.797   268.000   268.000   10.720   10.720   0.000   0.000
0.01125   0.00175   293.014   1137.797   268.000   268.000   10.720   10.720   0.000   0.000
0.01375   0.00175   293.025   1137.797   268.000   268.000   10.720   10.720   0.000   0.000
0.01625   0.00175   293.042   1137.797   268.000   268.000   10.720   10.720   0.000   0.000
0.01875   0.00175   293.071   1137.797   268.000   268.000   10.720   10.720   0.000   0.000
0.02125   0.00175   293.117   1137.797   268.000   268.000   10.720   10.720   0.000   0.000