VARIABLES = X, Y, T, ap,an,as,aw,ae,sp,su
ZONE I=20,J=20, F=POINT,t="24.924"
0.00125   0.00975   298.578   1137.797   0.000   268.000   0.000   10.720   0.000   -0.004
0.00375   0.00975   298.822   1137.797   0.000   268.000   10.720   10.720   0.000   -0.004
0.00625   0.00975   299.316   1137.797   0.000   268.000   10.720   10.720   0.000   -0.005
0.00875   0.00975   300.068   1137.797   0.000   268.000   10.720   10.720   0.000   -0.005
0.01125   0.00975   301.093   1137.797   0.000   268.000   10.720   10.720   0.000   -0.006
0.01375   0.00975   302.408   1137.797   0.000   268.000   10.720   10.720   0.000   -0.007
0.01625   0.00975   304.035   1137.797   0.000   268.000   10.720   10.720   0.000   -0.008
0.01875   0.00975   306.001   1137.797   0.000   268.000   10.720   10.720   0.000   -0.010
0.02125   0.00975   308.335   1137.797   0.000   268.000   10.720   10.720   0.000   -0.011
0.02375   0.00975   311.069   1137.797   0.000   268.000   10.720   10.720   0.000   -0.014
0.02625   0.00975   314.245   1137.797   0.000   268.000   10.720   10.720   0.000   -0.016
0.02875   0.00975   317.946   1137.797   0.000   268.000   10.720   10.720   0.000   -0.019
0.03125   0.00975   322.587   1137.797   0.000   268.000   10.720   10.720   0.000   81.054
0.03375   0.00975   326.389   1137.797   0.000   268.000   10.720   10.720   0.000   80.992
0.03625   0.00975   329.765   1137.797   0.000   268.000   10.720   10.720   0.000   80.935
0.03875   0.00975   332.795   1137.797   0.000   268.000   10.720   10.720   0.000   80.883
0.04125   0.00975   335.512   1137.797   0.000   268.000   10.720   10.720   0.000   80.835
0.04375   0.00975   337.939   1137.797   0.000   268.000   10.720   10.720   0.000   80.791
0.04625   0.00975   340.088   1137.797   0.000   268.000   10.720   10.720   0.000   80.752
0.04875   0.00975   341.945   1137.797   0.000   268.000   10.720   0.000   0.000   96.867
0.00125   0.00925   298.577   1137.797   268.000   268.000   0.000   10.720   0.000   0.000
0.00375   0.00925   298.821   1137.797   268.000   268.000   10.720   10.720   0.000   0.000
0.00625   0.00925   299.315   1137.797   268.000   268.000   10.720   10.720   0.000   0.000
0.00875   0.00925   300.067   1137.797   268.000   268.000   10.720   10.720   0.000   0.000
0.01125   0.00925   301.091   1137.797   268.000   268.000   10.720   10.720   0.000   0.000
0.01375   0.00925   302.406   1137.797   268.000   268.000   10.720   10.720   0.000   0.000
0.01625   0.00925   304.033   1137.797   268.000   268.000   10.720   10.720   0.000   0.000
0.01875   0.00925   305.999   1137.797   268.000   268.000   10.720   10.720   0.000   0.000
0.02125   0.00925   308.332   1137.797   268.000   268.000   10.720   10.720   0.000   0.000
0.02375   0.00925   311.065   1137.797   268.000   268.000   10.720   10.720   0.000   0.000
0.02625   0.00925   314.239   1137.797   268.000   268.000   10.720   10.720   0.000   0.000
0.02875   0.00925   317.925   1137.797   268.000   268.000   10.720   10.720   0.000   0.000
0.03125   0.00925   322.335   1137.797   268.000   268.000   10.720   10.720   0.000   0.000
0.03375   0.00925   326.121   1137.797   268.000   268.000   10.720   10.720   0.000   0.000
0.03625   0.00925   329.496   1137.797   268.000   268.000   10.720   10.720   0.000   0.000
0.03875   0.00925   332.525   1137.797   268.000   268.000   10.720   10.720   0.000   0.000
0.04125   0.00925   335.242   1137.797   268.000   268.000   10.720   10.720   0.000   0.000
0.04375   0.00925   337.669   1137.797   268.000   268.000   10.720   10.720   0.000   0.000
0.04625   0.00925   339.819   1137.797   268.000   268.000   10.720   10.720   0.000   0.000
0.04875   0.00925   341.679   1137.797   268.000   268.000   10.720   0.000   0.000   16.152
0.00125   0.00875   298.574   1137.797   268.000   268.000   0.000   10.720   0.000   0.000
0.00375   0.00875   298.818   1137.797   268.000   268.000   10.720   10.720   0.000   0.000
0.00625   0.00875   299.312   1137.797   268.000   268.000   10.720   10.720   0.000   0.000
0.00875   0.00875   300.063   1137.797   268.000   268.000   10.720   10.720   0.000   0.000
0.01125   0.00875   301.087   1137.797   268.000   268.000   10.720   10.720   0.000   0.000
0.01375   0.00875   302.402   1137.797   268.000   268.000   10.720   10.720   0.000   0.000
0.01625   0.00875   304.029   1137.797   268.000   268.000   10.720   10.720   0.000   0.000
0.01875   0.00875   305.994   1137.797   268.000   268.000   10.720   10.720   0.000   0.000
0.02125   0.00875   308.326   1137.797   268.000   268.000   10.720   10.720   0.000   0.000
0.02375   0.00875   311.058   1137.797   268.000   268.000   10.720   10.720   0.000   0.000
0.02625   0.00875   314.228   1137.797   268.000   268.000   10.720   10.720   0.000   0.000
0.02875   0.00875   317.890   1137.797   268.000   268.000   10.720   10.720   0.000   0.000
0.03125   0.00875   322.125   1137.797   268.000   268.000   10.720   10.720   0.000   0.000
0.03375   0.00875   325.888   1137.797   268.000   268.000   10.720   10.720   0.000   0.000
0.03625   0.00875   329.259   1137.797   268.000   268.000   10.720   10.720   0.000   0.000
0.03875   0.00875   332.287   1137.797   268.000   268.000   10.720   10.720   0.000   0.000
0.04125   0.00875   335.003   1137.797   268.000   268.000   10.720   10.720   0.000   0.000
0.04375   0.00875   337.430   1137.797   268.000   268.000   10.720   10.720   0.000   0.000
0.04625   0.00875   339.582   1137.797   268.000   268.000   10.720   10.720   0.000   0.000
0.04875   0.00875   341.448   1137.797   268.000   268.000   10.720   0.000   0.000   16.153
0.00125   0.00825   298.570   1137.797   268.000   268.000   0.000   10.720   0.000   0.000
0.00375   0.00825   298.814   1137.797   268.000   268.000   10.720   10.720   0.000   0.000
0.00625   0.00825   299.307   1137.797   268.000   268.000   10.720   10.720   0.000   0.000
0.00875   0.00825   300.059   1137.797   268.000   268.000   10.720   10.720   0.000   0.000
0.01125   0.00825   301.082   1137.797   268.000   268.000   10.720   10.720   0.000   0.000
0.01375   0.00825   302.396   1137.797   268.000   268.000   10.720   10.720   0.000   0.000
0.01625   0.00825   304.022   1137.797   268.000   268.000   10.720   10.720   0.000   0.000
0.01875   0.00825   305.986   1137.797   268.000   268.000   10.720   10.720   0.000   0.000
0.02125   0.00825   308.317   1137.797   268.000   268.000   10.720   10.720   0.000   0.000
0.02375   0.00825   311.047   1137.797   268.000   268.000   10.720   10.720   0.000   0.000
0.02625   0.00825   314.212   1137.797   268.000   268.000   10.720   10.720   0.000   0.000
0.02875   0.00825   317.848   1137.797   268.000   268.000   10.720   10.720   0.000   0.000
0.03125   0.00825   321.950   1137.797   268.000   268.000   10.720   10.720   0.000   0.000
0.03375   0.00825   325.689   1137.797   268.000   268.000   10.720   10.720   0.000   0.000
0.03625   0.00825   329.054   1137.797   268.000   268.000   10.720   10.720   0.000   0.000
0.03875   0.00825   332.080   1137.797   268.000   268.000   10.720   10.720   0.000   0.000
0.04125   0.00825   334.796   1137.797   268.000   268.000   10.720   10.720   0.000   0.000
0.04375   0.00825   337.223   1137.797   268.000   268.000   10.720   10.720   0.000   0.000
0.04625   0.00825   339.377   1137.797   268.000   268.000   10.720   10.720   0.000   0.000
0.04875   0.00825   341.252   1137.797   268.000   268.000   10.720   0.000   0.000   16.153
0.00125   0.00775   298.564   1137.797   268.000   268.000   0.000   10.720   0.000   0.000
0.00375   0.00775   298.808   1137.797   268.000   268.000   10.720   10.720   0.000   0.000
0.00625   0.00775   299.301   1137.797   268.000   268.000   10.720   10.720   0.000   0.000
0.00875   0.00775   300.052   1137.797   268.000   268.000   10.720   10.720   0.000   0.000
0.01125   0.00775   301.075   1137.797   268.000   268.000   10.720   10.720   0.000   0.000
0.01375   0.00775   302.388   1137.797   268.000   268.000   10.720   10.720   0.000   0.000
0.01625   0.00775   304.013   1137.797   268.000   268.000   10.720   10.720   0.000   0.000
0.01875   0.00775   305.976   1137.797   268.000   268.000   10.720   10.720   0.000   0.000
0.02125   0.00775   308.305   1137.797   268.000   268.000   10.720   10.720   0.000   0.000
0.02375   0.00775   311.033   1137.797   268.000   268.000   10.720   10.720   0.000   0.000
0.02625   0.00775   314.192   1137.797   268.000   268.000   10.720   10.720   0.000   0.000
0.02875   0.00775   317.804   1137.797   268.000   268.000   10.720   10.720   0.000   0.000
0.03125   0.00775   321.808   1137.797   268.000   268.000   10.720   10.720   0.000   0.000
0.03375   0.00775   325.522   1137.797   268.000   268.000   10.720   10.720   0.000   0.000
0.03625   0.00775   328.881   1137.797   268.000   268.000   10.720   10.720   0.000   0.000
0.03875   0.00775   331.906   1137.797   268.000   268.000   10.720   10.720   0.000   0.000
0.04125   0.00775   334.620   1137.797   268.000   268.000   10.720   10.720   0.000   0.000
0.04375   0.00775   337.048   1137.797   268.000   268.000   10.720   10.720   0.000   0.000
0.04625   0.00775   339.205   1137.797   268.000   268.000   10.720   10.720   0.000   0.000
0.04875   0.00775   341.091   1137.797   268.000   268.000   10.720   0.000   0.000   16.154
0.00125   0.00725   298.558   1137.797   268.000   268.000   0.000   10.720   0.000   0.000
0.00375   0.00725   298.801   1137.797   268.000   268.000   10.720   10.720   0.000   0.000
0.00625   0.00725   299.294   1137.797   268.000   268.000   10.720   10.720   0.000   0.000
0.00875   0.00725   300.044   1137.797   268.000   268.000   10.720   10.720   0.000   0.000
0.01125   0.00725   301.066   1137.797   268.000   268.000   10.720   10.720   0.000   0.000
0.01375   0.00725   302.378   1137.797   268.000   268.000   10.720   10.720   0.000   0.000
0.01625   0.00725   304.001   1137.797   268.000   268.000   10.720   10.720   0.000   0.000
0.01875   0.00725   305.963   1137.797   268.000   268.000   10.720   10.720   0.000   0.000
0.02125   0.00725   308.290   1137.797   268.000   268.000   10.720   10.720   0.000   0.000
0.02375   0.00725   311.016   1137.797   268.000   268.000   10.720   10.720   0.000   0.000
0.02625   0.00725   314.168   1137.797   268.000   268.000   10.720   10.720   0.000   0.000
0.02875   0.00725   317.760   1137.797   268.000   268.000   10.720   10.720   0.000   0.000
0.03125   0.00725   321.693   1137.797   268.000   268.000   10.720   10.720   0.000   0.000
0.03375   0.00725   325.387   1137.797   268.000   268.000   10.720   10.720   0.000   0.000
0.03625   0.00725   328.741   1137.797   268.000   268.000   10.720   10.720   0.000   0.000
0.03875   0.00725   331.763   1137.797   268.000   268.000   10.720   10.720   0.000   0.000
0.04125   0.00725   334.476   1137.797   268.000   268.000   10.720   10.720   0.000   0.000
0.04375   0.00725   336.903   1137.797   268.000   268.000   10.720   10.720   0.000   0.000
0.04625   0.00725   339.063   1137.797   268.000   268.000   10.720   10.720   0.000   0.000
0.04875   0.00725   340.967   1137.797   268.000   268.000   10.720   0.000   0.000   16.154
0.00125   0.00675   298.550   1137.797   268.000   268.000   0.000   10.720   0.000   0.000
0.00375   0.00675   298.793   1137.797   268.000   268.000   10.720   10.720   0.000   0.000
0.00625   0.00675   299.285   1137.797   268.000   268.000   10.720   10.720   0.000   0.000
0.00875   0.00675   300.034   1137.797   268.000   268.000   10.720   10.720   0.000   0.000
0.01125   0.00675   301.055   1137.797   268.000   268.000   10.720   10.720   0.000   0.000
0.01375   0.00675   302.366   1137.797   268.000   268.000   10.720   10.720   0.000   0.000
0.01625   0.00675   303.988   1137.797   268.000   268.000   10.720   10.720   0.000   0.000
0.01875   0.00675   305.947   1137.797   268.000   268.000   10.720   10.720   0.000   0.000
0.02125   0.00675   308.273   1137.797   268.000   268.000   10.720   10.720   0.000   0.000
0.02375   0.00675   310.995   1137.797   268.000   268.000   10.720   10.720   0.000   0.000
0.02625   0.00675   314.142   1137.797   268.000   268.000   10.720   10.720   0.000   0.000
0.02875   0.00675   317.718   1137.797   268.000   268.000   10.720   10.720   0.000   0.000
0.03125   0.00675   321.605   1137.797   268.000   268.000   10.720   10.720   0.000   0.000
0.03375   0.00675   325.283   1137.797   268.000   268.000   10.720   10.720   0.000   0.000
0.03625   0.00675   328.632   1137.797   268.000   268.000   10.720   10.720   0.000   0.000
0.03875   0.00675   331.651   1137.797   268.000   268.000   10.720   10.720   0.000   0.000
0.04125   0.00675   334.363   1137.797   268.000   268.000   10.720   10.720   0.000   0.000
0.04375   0.00675   336.790   1137.797   268.000   268.000   10.720   10.720   0.000   0.000
0.04625   0.00675   338.953   1137.797   268.000   268.000   10.720   10.720   0.000   0.000
0.04875   0.00675   340.879   1137.797   268.000   268.000   10.720   0.000   0.000   16.155
0.00125   0.00625   298.540   1137.797   268.000   2.085   0.000   10.720   0.000   0.000
0.00375   0.00625   298.783   1137.797   268.000   2.085   10.720   10.720   0.000   0.000
0.00625   0.00625   299.275   1137.797   268.000   2.085   10.720   10.720   0.000   0.000
0.00875   0.00625   300.023   1137.797   268.000   2.085   10.720   10.720   0.000   0.000
0.01125   0.00625   301.043   1137.797   268.000   2.085   10.720   10.720   0.000   0.000
0.01375   0.00625   302.352   1137.797   268.000   2.085   10.720   10.720   0.000   0.000
0.01625   0.00625   303.972   1137.797   268.000   2.085   10.720   10.720   0.000   0.000
0.01875   0.00625   305.929   1137.797   268.000   2.085   10.720   10.720   0.000   0.000
0.02125   0.00625   308.252   1137.797   268.000   2.085   10.720   10.720   0.000   0.000
0.02375   0.00625   310.971   1137.797   268.000   2.085   10.720   10.720   0.000   0.000
0.02625   0.00625   314.114   1137.797   268.000   2.085   10.720   10.720   0.000   0.000
0.02875   0.00625   317.680   1137.797   268.000   2.085   10.720   10.720   0.000   0.000
0.03125   0.00625   321.542   1137.797   268.000   2.085   10.720   10.720   0.000   0.000
0.03375   0.00625   325.210   1137.797   268.000   2.085   10.720   10.720   0.000   0.000
0.03625   0.00625   328.555   1137.797   268.000   2.085   10.720   10.720   0.000   0.000
0.03875   0.00625   331.572   1137.797   268.000   2.085   10.720   10.720   0.000   0.000
0.04125   0.00625   334.282   1137.797   268.000   2.085   10.720   10.720   0.000   0.000
0.04375   0.00625   336.707   1137.797   268.000   2.085   10.720   10.720   0.000   0.000
0.04625   0.00625   338.873   1137.797   268.000   2.085   10.720   10.720   0.000   0.000
0.04875   0.00625   340.828   1137.797   268.000   2.085   10.720   0.000   0.000   16.155
0.00125   0.00575   297.149   686.719   2.085   1.046   0.000   0.042   0.000   0.000
0.00375   0.00575   297.348   686.719   2.085   1.046   0.042   0.042   0.000   0.000
0.00625   0.00575   297.752   686.719   2.085   1.046   0.042   0.042   0.000   0.000
0.00875   0.00575   298.368   686.719   2.085   1.046   0.042   0.042   0.000   0.000
0.01125   0.00575   299.210   686.719   2.085   1.046   0.042   0.042   0.000   0.000
0.01375   0.00575   300.296   686.719   2.085   1.046   0.042   0.042   0.000   0.000
0.01625   0.00575   301.647   686.719   2.085   1.046   0.042   0.042   0.000   0.000
0.01875   0.00575   303.289   686.719   2.085   1.046   0.042   0.042   0.000   0.000
0.02125   0.00575   305.248   686.719   2.085   1.046   0.042   0.042   0.000   0.000
0.02375   0.00575   307.556   686.719   2.085   1.046   0.042   0.042   0.000   0.000
0.02625   0.00575   310.238   686.719   2.085   1.046   0.042   0.042   0.000   0.000
0.02875   0.00575   313.296   686.719   2.085   1.046   0.042   0.042   0.000   0.000
0.03125   0.00575   316.619   686.719   2.085   1.046   0.042   0.042   0.000   0.000
0.03375   0.00575   319.798   686.719   2.085   1.046   0.042   0.042   0.000   0.000
0.03625   0.00575   322.720   686.719   2.085   1.046   0.042   0.042   0.000   0.000
0.03875   0.00575   325.382   686.719   2.085   1.046   0.042   0.042   0.000   0.000
0.04125   0.00575   327.807   686.719   2.085   1.046   0.042   0.042   0.000   0.000
0.04375   0.00575   330.032   686.719   2.085   1.046   0.042   0.042   0.000   0.000
0.04625   0.00575   332.322   686.719   2.085   1.046   0.042   0.042   0.000   0.000
0.04875   0.00575   339.354   686.719   2.085   1.046   0.042   0.000   0.000   6.060
0.00125   0.00525   295.441   686.719   1.046   1.046   0.000   0.042   0.000   0.000
0.00375   0.00525   295.575   686.719   1.046   1.046   0.042   0.042   0.000   0.000
0.00625   0.00525   295.847   686.719   1.046   1.046   0.042   0.042   0.000   0.000
0.00875   0.00525   296.265   686.719   1.046   1.046   0.042   0.042   0.000   0.000
0.01125   0.00525   296.838   686.719   1.046   1.046   0.042   0.042   0.000   0.000
0.01375   0.00525   297.584   686.719   1.046   1.046   0.042   0.042   0.000   0.000
0.01625   0.00525   298.518   686.719   1.046   1.046   0.042   0.042   0.000   0.000
0.01875   0.00525   299.663   686.719   1.046   1.046   0.042   0.042   0.000   0.000
0.02125   0.00525   301.043   686.719   1.046   1.046   0.042   0.042   0.000   0.000
0.02375   0.00525   302.684   686.719   1.046   1.046   0.042   0.042   0.000   0.000
0.02625   0.00525   304.608   686.719   1.046   1.046   0.042   0.042   0.000   0.000
0.02875   0.00525   306.819   686.719   1.046   1.046   0.042   0.042   0.000   0.000
0.03125   0.00525   309.239   686.719   1.046   1.046   0.042   0.042   0.000   0.000
0.03375   0.00525   311.597   686.719   1.046   1.046   0.042   0.042   0.000   0.000
0.03625   0.00525   313.814   686.719   1.046   1.046   0.042   0.042   0.000   0.000
0.03875   0.00525   315.891   686.719   1.046   1.046   0.042   0.042   0.000   0.000
0.04125   0.00525   317.850   686.719   1.046   1.046   0.042   0.042   0.000   0.000
0.04375   0.00525   319.746   686.719   1.046   1.046   0.042   0.042   0.000   0.000
0.04625   0.00525   322.154   686.719   1.046   1.046   0.042   0.042   0.000   0.000
0.04875   0.00525   334.012   686.719   1.046   1.046   0.042   0.000   0.000   6.067
0.00125   0.00475   294.463   686.719   1.046   1.046   0.000   0.042   0.000   0.000
0.00375   0.00475   294.551   686.719   1.046   1.046   0.042   0.042   0.000   0.000
0.00625   0.00475   294.731   686.719   1.046   1.046   0.042   0.042   0.000   0.000
0.00875   0.00475   295.007   686.719   1.046   1.046   0.042   0.042   0.000   0.000
0.01125   0.00475   295.388   686.719   1.046   1.046   0.042   0.042   0.000   0.000
0.01375   0.00475   295.886   686.719   1.046   1.046   0.042   0.042   0.000   0.000
0.01625   0.00475   296.512   686.719   1.046   1.046   0.042   0.042   0.000   0.000
0.01875   0.00475   297.284   686.719   1.046   1.046   0.042   0.042   0.000   0.000
0.02125   0.00475   298.219   686.719   1.046   1.046   0.042   0.042   0.000   0.000
0.02375   0.00475   299.336   686.719   1.046   1.046   0.042   0.042   0.000   0.000
0.02625   0.00475   300.652   686.719   1.046   1.046   0.042   0.042   0.000   0.000
0.02875   0.00475   302.173   686.719   1.046   1.046   0.042   0.042   0.000   0.000
0.03125   0.00475   303.853   686.719   1.046   1.046   0.042   0.042   0.000   0.000
0.03375   0.00475   305.540   686.719   1.046   1.046   0.042   0.042   0.000   0.000
0.03625   0.00475   307.188   686.719   1.046   1.046   0.042   0.042   0.000   0.000
0.03875   0.00475   308.801   686.719   1.046   1.046   0.042   0.042   0.000   0.000
0.04125   0.00475   310.397   686.719   1.046   1.046   0.042   0.042   0.000   0.000
0.04375   0.00475   312.026   686.719   1.046   1.046   0.042   0.042   0.000   0.000
0.04625   0.00475   314.259   686.719   1.046   1.046   0.042   0.042   0.000   0.000
0.04875   0.00475   326.037   686.719   1.046   1.046   0.042   0.000   0.000   6.077
0.00125   0.00425   293.980   686.719   1.046   2.085   0.000   0.042   0.000   0.000
0.00375   0.00425   294.038   686.719   1.046   2.085   0.042   0.042   0.000   0.000
0.00625   0.00425   294.156   686.719   1.046   2.085   0.042   0.042   0.000   0.000
0.00875   0.00425   294.338   686.719   1.046   2.085   0.042   0.042   0.000   0.000
0.01125   0.00425   294.587   686.719   1.046   2.085   0.042   0.042   0.000   0.000
0.01375   0.00425   294.911   686.719   1.046   2.085   0.042   0.042   0.000   0.000
0.01625   0.00425   295.317   686.719   1.046   2.085   0.042   0.042   0.000   0.000
0.01875   0.00425   295.814   686.719   1.046   2.085   0.042   0.042   0.000   0.000
0.02125   0.00425   296.413   686.719   1.046   2.085   0.042   0.042   0.000   0.000
0.02375   0.00425   297.124   686.719   1.046   2.085   0.042   0.042   0.000   0.000
0.02625   0.00425   297.957   686.719   1.046   2.085   0.042   0.042   0.000   0.000
0.02875   0.00425   298.916   686.719   1.046   2.085   0.042   0.042   0.000   0.000
0.03125   0.00425   299.989   686.719   1.046   2.085   0.042   0.042   0.000   0.000
0.03375   0.00425   301.129   686.719   1.046   2.085   0.042   0.042   0.000   0.000
0.03625   0.00425   302.323   686.719   1.046   2.085   0.042   0.042   0.000   0.000
0.03875   0.00425   303.575   686.719   1.046   2.085   0.042   0.042   0.000   0.000
0.04125   0.00425   304.895   686.719   1.046   2.085   0.042   0.042   0.000   0.000
0.04375   0.00425   306.306   686.719   1.046   2.085   0.042   0.042   0.000   0.000
0.04625   0.00425   308.062   686.719   1.046   2.085   0.042   0.042   0.000   0.000
0.04875   0.00425   314.843   686.719   1.046   2.085   0.042   0.000   0.000   6.089
0.00125   0.00375   293.913   1137.797   2.085   268.000   0.000   10.720   0.000   0.000
0.00375   0.00375   293.961   1137.797   2.085   268.000   10.720   10.720   0.000   0.000
0.00625   0.00375   294.059   1137.797   2.085   268.000   10.720   10.720   0.000   0.000
0.00875   0.00375   294.208   1137.797   2.085   268.000   10.720   10.720   0.000   0.000
0.01125   0.00375   294.412   1137.797   2.085   268.000   10.720   10.720   0.000   0.000
0.01375   0.00375   294.674   1137.797   2.085   268.000   10.720   10.720   0.000   0.000
0.01625   0.00375   295.000   1137.797   2.085   268.000   10.720   10.720   0.000   0.000
0.01875   0.00375   295.393   1137.797   2.085   268.000   10.720   10.720   0.000   0.000
0.02125   0.00375   295.861   1137.797   2.085   268.000   10.720   10.720   0.000   0.000
0.02375   0.00375   296.407   1137.797   2.085   268.000   10.720   10.720   0.000   0.000
0.02625   0.00375   297.039   1137.797   2.085   268.000   10.720   10.720   0.000   0.000
0.02875   0.00375   297.758   1137.797   2.085   268.000   10.720   10.720   0.000   0.000
0.03125   0.00375   298.571   1137.797   2.085   268.000   10.720   10.720   0.000   0.000
0.03375   0.00375   299.477   1137.797   2.085   268.000   10.720   10.720   0.000   0.000
0.03625   0.00375   300.481   1137.797   2.085   268.000   10.720   10.720   0.000   0.000
0.03875   0.00375   301.586   1137.797   2.085   268.000   10.720   10.720   0.000   0.000
0.04125   0.00375   302.795   1137.797   2.085   268.000   10.720   10.720   0.000   0.000
0.04375   0.00375   304.115   1137.797   2.085   268.000   10.720   10.720   0.000   0.000
0.04625   0.00375   305.555   1137.797   2.085   268.000   10.720   10.720   0.000   0.000
0.04875   0.00375   307.155   1137.797   2.085   268.000   10.720   0.000   0.000   16.259
0.00125   0.00325   293.912   1137.797   268.000   268.000   0.000   10.720   0.000   0.000
0.00375   0.00325   293.960   1137.797   268.000   268.000   10.720   10.720   0.000   0.000
0.00625   0.00325   294.058   1137.797   268.000   268.000   10.720   10.720   0.000   0.000
0.00875   0.00325   294.207   1137.797   268.000   268.000   10.720   10.720   0.000   0.000
0.01125   0.00325   294.411   1137.797   268.000   268.000   10.720   10.720   0.000   0.000
0.01375   0.00325   294.672   1137.797   268.000   268.000   10.720   10.720   0.000   0.000
0.01625   0.00325   294.997   1137.797   268.000   268.000   10.720   10.720   0.000   0.000
0.01875   0.00325   295.390   1137.797   268.000   268.000   10.720   10.720   0.000   0.000
0.02125   0.00325   295.857   1137.797   268.000   268.000   10.720   10.720   0.000   0.000
0.02375   0.00325   296.403   1137.797   268.000   268.000   10.720   10.720   0.000   0.000
0.02625   0.00325   297.032   1137.797   268.000   268.000   10.720   10.720   0.000   0.000
0.02875   0.00325   297.751   1137.797   268.000   268.000   10.720   10.720   0.000   0.000
0.03125   0.00325   298.561   1137.797   268.000   268.000   10.720   10.720   0.000   0.000
0.03375   0.00325   299.466   1137.797   268.000   268.000   10.720   10.720   0.000   0.000
0.03625   0.00325   300.469   1137.797   268.000   268.000   10.720   10.720   0.000   0.000
0.03875   0.00325   301.572   1137.797   268.000   268.000   10.720   10.720   0.000   0.000
0.04125   0.00325   302.781   1137.797   268.000   268.000   10.720   10.720   0.000   0.000
0.04375   0.00325   304.100   1137.797   268.000   268.000   10.720   10.720   0.000   0.000
0.04625   0.00325   305.536   1137.797   268.000   268.000   10.720   10.720   0.000   0.000
0.04875   0.00325   307.106   1137.797   268.000   268.000   10.720   0.000   0.000   16.259
0.00125   0.00275   293.912   1137.797   268.000   268.000   0.000   10.720   0.000   0.000
0.00375   0.00275   293.960   1137.797   268.000   268.000   10.720   10.720   0.000   0.000
0.00625   0.00275   294.057   1137.797   268.000   268.000   10.720   10.720   0.000   0.000
0.00875   0.00275   294.206   1137.797   268.000   268.000   10.720   10.720   0.000   0.000
0.01125   0.00275   294.410   1137.797   268.000   268.000   10.720   10.720   0.000   0.000
0.01375   0.00275   294.671   1137.797   268.000   268.000   10.720   10.720   0.000   0.000
0.01625   0.00275   294.996   1137.797   268.000   268.000   10.720   10.720   0.000   0.000
0.01875   0.00275   295.388   1137.797   268.000   268.000   10.720   10.720   0.000   0.000
0.02125   0.00275   295.854   1137.797   268.000   268.000   10.720   10.720   0.000   0.000
0.02375   0.00275   296.398   1137.797   268.000   268.000   10.720   10.720   0.000   0.000
0.02625   0.00275   297.027   1137.797   268.000   268.000   10.720   10.720   0.000   0.000
0.02875   0.00275   297.744   1137.797   268.000   268.000   10.720   10.720   0.000   0.000
0.03125   0.00275   298.553   1137.797   268.000   268.000   10.720   10.720   0.000   0.000
0.03375   0.00275   299.456   1137.797   268.000   268.000   10.720   10.720   0.000   0.000
0.03625   0.00275   300.458   1137.797   268.000   268.000   10.720   10.720   0.000   0.000
0.03875   0.00275   301.561   1137.797   268.000   268.000   10.720   10.720   0.000   0.000
0.04125   0.00275   302.769   1137.797   268.000   268.000   10.720   10.720   0.000   0.000
0.04375   0.00275   304.086   1137.797   268.000   268.000   10.720   10.720   0.000   0.000
0.04625   0.00275   305.518   1137.797   268.000   268.000   10.720   10.720   0.000   0.000
0.04875   0.00275   307.065   1137.797   268.000   268.000   10.720   0.000   0.000   16.259
0.00125   0.00225   293.911   1137.797   268.000   268.000   0.000   10.720   0.000   0.000
0.00375   0.00225   293.960   1137.797   268.000   268.000   10.720   10.720   0.000   0.000
0.00625   0.00225   294.057   1137.797   268.000   268.000   10.720   10.720   0.000   0.000
0.00875   0.00225   294.206   1137.797   268.000   268.000   10.720   10.720   0.000   0.000
0.01125   0.00225   294.409   1137.797   268.000   268.000   10.720   10.720   0.000   0.000
0.01375   0.00225   294.670   1137.797   268.000   268.000   10.720   10.720   0.000   0.000
0.01625   0.00225   294.994   1137.797   268.000   268.000   10.720   10.720   0.000   0.000
0.01875   0.00225   295.386   1137.797   268.000   268.000   10.720   10.720   0.000   0.000
0.02125   0.00225   295.851   1137.797   268.000   268.000   10.720   10.720   0.000   0.000
0.02375   0.00225   296.395   1137.797   268.000   268.000   10.720   10.720   0.000   0.000
0.02625   0.00225   297.022   1137.797   268.000   268.000   10.720   10.720   0.000   0.000
0.02875   0.00225   297.738   1137.797   268.000   268.000   10.720   10.720   0.000   0.000
0.03125   0.00225   298.546   1137.797   268.000   268.000   10.720   10.720   0.000   0.000
0.03375   0.00225   299.449   1137.797   268.000   268.000   10.720   10.720   0.000   0.000
0.03625   0.00225   300.449   1137.797   268.000   268.000   10.720   10.720   0.000   0.000
0.03875   0.00225   301.551   1137.797   268.000   268.000   10.720   10.720   0.000   0.000
0.04125   0.00225   302.759   1137.797   268.000   268.000   10.720   10.720   0.000   0.000
0.04375   0.00225   304.075   1137.797   268.000   268.000   10.720   10.720   0.000   0.000
0.04625   0.00225   305.503   1137.797   268.000   268.000   10.720   10.720   0.000   0.000
0.04875   0.00225   307.032   1137.797   268.000   268.000   10.720   0.000   0.000   16.259
0.00125   0.00175   293.911   1137.797   268.000   268.000   0.000   10.720   0.000   0.000
0.00375   0.00175   293.959   1137.797   268.000   268.000   10.720   10.720   0.000   0.000
0.00625   0.00175   294.057   1137.797   268.000   268.000   10.720   10.720   0.000   0.000
0.00875   0.00175   294.205   1137.797   268.000   268.000   10.720   10.720   0.000   0.000
0.01125   0.00175   294.408   1137.797   268.000   268.000   10.720   10.720   0.000   0.000
0.01375   0.00175   294.669   1137.797   268.000   268.000   10.720   10.720   0.000   0.000
0.01625   0.00175   294.993   1137.797   268.000   268.000   10.720   10.720   0.000   0.000
0.01875   0.00175   295.384   1137.797   268.000   268.000   10.720   10.720   0.000   0.000
0.02125   0.00175   295.849   1137.797   268.000   268.000   10.720   10.720   0.000   0.000