VARIABLES = X, Y, T, ap,an,as,aw,ae,sp,su
ZONE I=20,J=20, F=POINT,t="9.032"
0.00125   0.00975   293.322   1137.797   0.000   268.000   0.000   10.720   0.000   -0.000
0.00375   0.00975   293.379   1137.797   0.000   268.000   10.720   10.720   0.000   -0.000
0.00625   0.00975   293.500   1137.797   0.000   268.000   10.720   10.720   0.000   -0.000
0.00875   0.00975   293.696   1137.797   0.000   268.000   10.720   10.720   0.000   -0.001
0.01125   0.00975   293.987   1137.797   0.000   268.000   10.720   10.720   0.000   -0.001
0.01375   0.00975   294.399   1137.797   0.000   268.000   10.720   10.720   0.000   -0.001
0.01625   0.00975   294.966   1137.797   0.000   268.000   10.720   10.720   0.000   -0.001
0.01875   0.00975   295.730   1137.797   0.000   268.000   10.720   10.720   0.000   -0.002
0.02125   0.00975   296.740   1137.797   0.000   268.000   10.720   10.720   0.000   -0.003
0.02375   0.00975   298.055   1137.797   0.000   268.000   10.720   10.720   0.000   -0.004
0.02625   0.00975   299.748   1137.797   0.000   268.000   10.720   10.720   0.000   -0.005
0.02875   0.00975   301.936   1137.797   0.000   268.000   10.720   10.720   0.000   -0.007
0.03125   0.00975   305.078   1137.797   0.000   268.000   10.720   10.720   0.000   81.312
0.03375   0.00975   307.431   1137.797   0.000   268.000   10.720   10.720   0.000   81.280
0.03625   0.00975   309.455   1137.797   0.000   268.000   10.720   10.720   0.000   81.252
0.03875   0.00975   311.271   1137.797   0.000   268.000   10.720   10.720   0.000   81.226
0.04125   0.00975   312.956   1137.797   0.000   268.000   10.720   10.720   0.000   81.201
0.04375   0.00975   314.569   1137.797   0.000   268.000   10.720   10.720   0.000   81.177
0.04625   0.00975   316.154   1137.797   0.000   268.000   10.720   10.720   0.000   81.154
0.04875   0.00975   317.724   1137.797   0.000   268.000   10.720   0.000   0.000   97.359
0.00125   0.00925   293.322   1137.797   268.000   268.000   0.000   10.720   0.000   0.000
0.00375   0.00925   293.379   1137.797   268.000   268.000   10.720   10.720   0.000   0.000
0.00625   0.00925   293.499   1137.797   268.000   268.000   10.720   10.720   0.000   0.000
0.00875   0.00925   293.695   1137.797   268.000   268.000   10.720   10.720   0.000   0.000
0.01125   0.00925   293.986   1137.797   268.000   268.000   10.720   10.720   0.000   0.000
0.01375   0.00925   294.398   1137.797   268.000   268.000   10.720   10.720   0.000   0.000
0.01625   0.00925   294.965   1137.797   268.000   268.000   10.720   10.720   0.000   0.000
0.01875   0.00925   295.729   1137.797   268.000   268.000   10.720   10.720   0.000   0.000
0.02125   0.00925   296.738   1137.797   268.000   268.000   10.720   10.720   0.000   0.000
0.02375   0.00925   298.053   1137.797   268.000   268.000   10.720   10.720   0.000   0.000
0.02625   0.00925   299.743   1137.797   268.000   268.000   10.720   10.720   0.000   0.000
0.02875   0.00925   301.916   1137.797   268.000   268.000   10.720   10.720   0.000   0.000
0.03125   0.00925   304.827   1137.797   268.000   268.000   10.720   10.720   0.000   0.000
0.03375   0.00925   307.164   1137.797   268.000   268.000   10.720   10.720   0.000   0.000
0.03625   0.00925   309.186   1137.797   268.000   268.000   10.720   10.720   0.000   0.000
0.03875   0.00925   311.001   1137.797   268.000   268.000   10.720   10.720   0.000   0.000
0.04125   0.00925   312.686   1137.797   268.000   268.000   10.720   10.720   0.000   0.000
0.04375   0.00925   314.299   1137.797   268.000   268.000   10.720   10.720   0.000   0.000
0.04625   0.00925   315.884   1137.797   268.000   268.000   10.720   10.720   0.000   0.000
0.04875   0.00925   317.457   1137.797   268.000   268.000   10.720   0.000   0.000   16.230
0.00125   0.00875   293.322   1137.797   268.000   268.000   0.000   10.720   0.000   0.000
0.00375   0.00875   293.379   1137.797   268.000   268.000   10.720   10.720   0.000   0.000
0.00625   0.00875   293.499   1137.797   268.000   268.000   10.720   10.720   0.000   0.000
0.00875   0.00875   293.695   1137.797   268.000   268.000   10.720   10.720   0.000   0.000
0.01125   0.00875   293.985   1137.797   268.000   268.000   10.720   10.720   0.000   0.000
0.01375   0.00875   294.397   1137.797   268.000   268.000   10.720   10.720   0.000   0.000
0.01625   0.00875   294.964   1137.797   268.000   268.000   10.720   10.720   0.000   0.000
0.01875   0.00875   295.727   1137.797   268.000   268.000   10.720   10.720   0.000   0.000
0.02125   0.00875   296.736   1137.797   268.000   268.000   10.720   10.720   0.000   0.000
0.02375   0.00875   298.049   1137.797   268.000   268.000   10.720   10.720   0.000   0.000
0.02625   0.00875   299.735   1137.797   268.000   268.000   10.720   10.720   0.000   0.000
0.02875   0.00875   301.885   1137.797   268.000   268.000   10.720   10.720   0.000   0.000
0.03125   0.00875   304.619   1137.797   268.000   268.000   10.720   10.720   0.000   0.000
0.03375   0.00875   306.933   1137.797   268.000   268.000   10.720   10.720   0.000   0.000
0.03625   0.00875   308.951   1137.797   268.000   268.000   10.720   10.720   0.000   0.000
0.03875   0.00875   310.765   1137.797   268.000   268.000   10.720   10.720   0.000   0.000
0.04125   0.00875   312.449   1137.797   268.000   268.000   10.720   10.720   0.000   0.000
0.04375   0.00875   314.061   1137.797   268.000   268.000   10.720   10.720   0.000   0.000
0.04625   0.00875   315.648   1137.797   268.000   268.000   10.720   10.720   0.000   0.000
0.04875   0.00875   317.225   1137.797   268.000   268.000   10.720   0.000   0.000   16.231
0.00125   0.00825   293.321   1137.797   268.000   268.000   0.000   10.720   0.000   0.000
0.00375   0.00825   293.378   1137.797   268.000   268.000   10.720   10.720   0.000   0.000
0.00625   0.00825   293.498   1137.797   268.000   268.000   10.720   10.720   0.000   0.000
0.00875   0.00825   293.694   1137.797   268.000   268.000   10.720   10.720   0.000   0.000
0.01125   0.00825   293.984   1137.797   268.000   268.000   10.720   10.720   0.000   0.000
0.01375   0.00825   294.396   1137.797   268.000   268.000   10.720   10.720   0.000   0.000
0.01625   0.00825   294.962   1137.797   268.000   268.000   10.720   10.720   0.000   0.000
0.01875   0.00825   295.724   1137.797   268.000   268.000   10.720   10.720   0.000   0.000
0.02125   0.00825   296.732   1137.797   268.000   268.000   10.720   10.720   0.000   0.000
0.02375   0.00825   298.043   1137.797   268.000   268.000   10.720   10.720   0.000   0.000
0.02625   0.00825   299.724   1137.797   268.000   268.000   10.720   10.720   0.000   0.000
0.02875   0.00825   301.848   1137.797   268.000   268.000   10.720   10.720   0.000   0.000
0.03125   0.00825   304.449   1137.797   268.000   268.000   10.720   10.720   0.000   0.000
0.03375   0.00825   306.738   1137.797   268.000   268.000   10.720   10.720   0.000   0.000
0.03625   0.00825   308.749   1137.797   268.000   268.000   10.720   10.720   0.000   0.000
0.03875   0.00825   310.562   1137.797   268.000   268.000   10.720   10.720   0.000   0.000
0.04125   0.00825   312.244   1137.797   268.000   268.000   10.720   10.720   0.000   0.000
0.04375   0.00825   313.856   1137.797   268.000   268.000   10.720   10.720   0.000   0.000
0.04625   0.00825   315.445   1137.797   268.000   268.000   10.720   10.720   0.000   0.000
0.04875   0.00825   317.029   1137.797   268.000   268.000   10.720   0.000   0.000   16.232
0.00125   0.00775   293.321   1137.797   268.000   268.000   0.000   10.720   0.000   0.000
0.00375   0.00775   293.378   1137.797   268.000   268.000   10.720   10.720   0.000   0.000
0.00625   0.00775   293.497   1137.797   268.000   268.000   10.720   10.720   0.000   0.000
0.00875   0.00775   293.693   1137.797   268.000   268.000   10.720   10.720   0.000   0.000
0.01125   0.00775   293.983   1137.797   268.000   268.000   10.720   10.720   0.000   0.000
0.01375   0.00775   294.393   1137.797   268.000   268.000   10.720   10.720   0.000   0.000
0.01625   0.00775   294.959   1137.797   268.000   268.000   10.720   10.720   0.000   0.000
0.01875   0.00775   295.720   1137.797   268.000   268.000   10.720   10.720   0.000   0.000
0.02125   0.00775   296.727   1137.797   268.000   268.000   10.720   10.720   0.000   0.000
0.02375   0.00775   298.036   1137.797   268.000   268.000   10.720   10.720   0.000   0.000
0.02625   0.00775   299.710   1137.797   268.000   268.000   10.720   10.720   0.000   0.000
0.02875   0.00775   301.810   1137.797   268.000   268.000   10.720   10.720   0.000   0.000
0.03125   0.00775   304.312   1137.797   268.000   268.000   10.720   10.720   0.000   0.000
0.03375   0.00775   306.576   1137.797   268.000   268.000   10.720   10.720   0.000   0.000
0.03625   0.00775   308.582   1137.797   268.000   268.000   10.720   10.720   0.000   0.000
0.03875   0.00775   310.392   1137.797   268.000   268.000   10.720   10.720   0.000   0.000
0.04125   0.00775   312.073   1137.797   268.000   268.000   10.720   10.720   0.000   0.000
0.04375   0.00775   313.684   1137.797   268.000   268.000   10.720   10.720   0.000   0.000
0.04625   0.00775   315.275   1137.797   268.000   268.000   10.720   10.720   0.000   0.000
0.04875   0.00775   316.870   1137.797   268.000   268.000   10.720   0.000   0.000   16.232
0.00125   0.00725   293.320   1137.797   268.000   268.000   0.000   10.720   0.000   0.000
0.00375   0.00725   293.377   1137.797   268.000   268.000   10.720   10.720   0.000   0.000
0.00625   0.00725   293.496   1137.797   268.000   268.000   10.720   10.720   0.000   0.000
0.00875   0.00725   293.691   1137.797   268.000   268.000   10.720   10.720   0.000   0.000
0.01125   0.00725   293.981   1137.797   268.000   268.000   10.720   10.720   0.000   0.000
0.01375   0.00725   294.391   1137.797   268.000   268.000   10.720   10.720   0.000   0.000
0.01625   0.00725   294.955   1137.797   268.000   268.000   10.720   10.720   0.000   0.000
0.01875   0.00725   295.715   1137.797   268.000   268.000   10.720   10.720   0.000   0.000
0.02125   0.00725   296.720   1137.797   268.000   268.000   10.720   10.720   0.000   0.000
0.02375   0.00725   298.027   1137.797   268.000   268.000   10.720   10.720   0.000   0.000
0.02625   0.00725   299.695   1137.797   268.000   268.000   10.720   10.720   0.000   0.000
0.02875   0.00725   301.774   1137.797   268.000   268.000   10.720   10.720   0.000   0.000
0.03125   0.00725   304.205   1137.797   268.000   268.000   10.720   10.720   0.000   0.000
0.03375   0.00725   306.448   1137.797   268.000   268.000   10.720   10.720   0.000   0.000
0.03625   0.00725   308.448   1137.797   268.000   268.000   10.720   10.720   0.000   0.000
0.03875   0.00725   310.255   1137.797   268.000   268.000   10.720   10.720   0.000   0.000
0.04125   0.00725   311.934   1137.797   268.000   268.000   10.720   10.720   0.000   0.000
0.04375   0.00725   313.544   1137.797   268.000   268.000   10.720   10.720   0.000   0.000
0.04625   0.00725   315.137   1137.797   268.000   268.000   10.720   10.720   0.000   0.000
0.04875   0.00725   316.747   1137.797   268.000   268.000   10.720   0.000   0.000   16.232
0.00125   0.00675   293.319   1137.797   268.000   268.000   0.000   10.720   0.000   0.000
0.00375   0.00675   293.376   1137.797   268.000   268.000   10.720   10.720   0.000   0.000
0.00625   0.00675   293.495   1137.797   268.000   268.000   10.720   10.720   0.000   0.000
0.00875   0.00675   293.690   1137.797   268.000   268.000   10.720   10.720   0.000   0.000
0.01125   0.00675   293.978   1137.797   268.000   268.000   10.720   10.720   0.000   0.000
0.01375   0.00675   294.388   1137.797   268.000   268.000   10.720   10.720   0.000   0.000
0.01625   0.00675   294.951   1137.797   268.000   268.000   10.720   10.720   0.000   0.000
0.01875   0.00675   295.709   1137.797   268.000   268.000   10.720   10.720   0.000   0.000
0.02125   0.00675   296.712   1137.797   268.000   268.000   10.720   10.720   0.000   0.000
0.02375   0.00675   298.016   1137.797   268.000   268.000   10.720   10.720   0.000   0.000
0.02625   0.00675   299.680   1137.797   268.000   268.000   10.720   10.720   0.000   0.000
0.02875   0.00675   301.743   1137.797   268.000   268.000   10.720   10.720   0.000   0.000
0.03125   0.00675   304.126   1137.797   268.000   268.000   10.720   10.720   0.000   0.000
0.03375   0.00675   306.353   1137.797   268.000   268.000   10.720   10.720   0.000   0.000
0.03625   0.00675   308.347   1137.797   268.000   268.000   10.720   10.720   0.000   0.000
0.03875   0.00675   310.151   1137.797   268.000   268.000   10.720   10.720   0.000   0.000
0.04125   0.00675   311.828   1137.797   268.000   268.000   10.720   10.720   0.000   0.000
0.04375   0.00675   313.437   1137.797   268.000   268.000   10.720   10.720   0.000   0.000
0.04625   0.00675   315.031   1137.797   268.000   268.000   10.720   10.720   0.000   0.000
0.04875   0.00675   316.661   1137.797   268.000   268.000   10.720   0.000   0.000   16.233
0.00125   0.00625   293.318   1137.797   268.000   2.085   0.000   10.720   0.000   0.000
0.00375   0.00625   293.374   1137.797   268.000   2.085   10.720   10.720   0.000   0.000
0.00625   0.00625   293.493   1137.797   268.000   2.085   10.720   10.720   0.000   0.000
0.00875   0.00625   293.687   1137.797   268.000   2.085   10.720   10.720   0.000   0.000
0.01125   0.00625   293.976   1137.797   268.000   2.085   10.720   10.720   0.000   0.000
0.01375   0.00625   294.384   1137.797   268.000   2.085   10.720   10.720   0.000   0.000
0.01625   0.00625   294.946   1137.797   268.000   2.085   10.720   10.720   0.000   0.000
0.01875   0.00625   295.702   1137.797   268.000   2.085   10.720   10.720   0.000   0.000
0.02125   0.00625   296.703   1137.797   268.000   2.085   10.720   10.720   0.000   0.000
0.02375   0.00625   298.004   1137.797   268.000   2.085   10.720   10.720   0.000   0.000
0.02625   0.00625   299.663   1137.797   268.000   2.085   10.720   10.720   0.000   0.000
0.02875   0.00625   301.716   1137.797   268.000   2.085   10.720   10.720   0.000   0.000
0.03125   0.00625   304.074   1137.797   268.000   2.085   10.720   10.720   0.000   0.000
0.03375   0.00625   306.291   1137.797   268.000   2.085   10.720   10.720   0.000   0.000
0.03625   0.00625   308.280   1137.797   268.000   2.085   10.720   10.720   0.000   0.000
0.03875   0.00625   310.080   1137.797   268.000   2.085   10.720   10.720   0.000   0.000
0.04125   0.00625   311.754   1137.797   268.000   2.085   10.720   10.720   0.000   0.000
0.04375   0.00625   313.361   1137.797   268.000   2.085   10.720   10.720   0.000   0.000
0.04625   0.00625   314.957   1137.797   268.000   2.085   10.720   10.720   0.000   0.000
0.04875   0.00625   316.613   1137.797   268.000   2.085   10.720   0.000   0.000   16.233
0.00125   0.00575   293.165   686.719   2.085   1.046   0.000   0.042   0.000   0.000
0.00375   0.00575   293.198   686.719   2.085   1.046   0.042   0.042   0.000   0.000
0.00625   0.00575   293.270   686.719   2.085   1.046   0.042   0.042   0.000   0.000
0.00875   0.00575   293.388   686.719   2.085   1.046   0.042   0.042   0.000   0.000
0.01125   0.00575   293.568   686.719   2.085   1.046   0.042   0.042   0.000   0.000
0.01375   0.00575   293.829   686.719   2.085   1.046   0.042   0.042   0.000   0.000
0.01625   0.00575   294.197   686.719   2.085   1.046   0.042   0.042   0.000   0.000
0.01875   0.00575   294.705   686.719   2.085   1.046   0.042   0.042   0.000   0.000
0.02125   0.00575   295.394   686.719   2.085   1.046   0.042   0.042   0.000   0.000
0.02375   0.00575   296.312   686.719   2.085   1.046   0.042   0.042   0.000   0.000
0.02625   0.00575   297.510   686.719   2.085   1.046   0.042   0.042   0.000   0.000
0.02875   0.00575   299.021   686.719   2.085   1.046   0.042   0.042   0.000   0.000
0.03125   0.00575   300.775   686.719   2.085   1.046   0.042   0.042   0.000   0.000
0.03375   0.00575   302.420   686.719   2.085   1.046   0.042   0.042   0.000   0.000
0.03625   0.00575   303.891   686.719   2.085   1.046   0.042   0.042   0.000   0.000
0.03875   0.00575   305.230   686.719   2.085   1.046   0.042   0.042   0.000   0.000
0.04125   0.00575   306.500   686.719   2.085   1.046   0.042   0.042   0.000   0.000
0.04375   0.00575   307.770   686.719   2.085   1.046   0.042   0.042   0.000   0.000
0.04625   0.00575   309.272   686.719   2.085   1.046   0.042   0.042   0.000   0.000
0.04875   0.00575   315.463   686.719   2.085   1.046   0.042   0.000   0.000   6.089
0.00125   0.00525   293.053   686.719   1.046   1.046   0.000   0.042   0.000   0.000
0.00375   0.00525   293.066   686.719   1.046   1.046   0.042   0.042   0.000   0.000
0.00625   0.00525   293.094   686.719   1.046   1.046   0.042   0.042   0.000   0.000
0.00875   0.00525   293.142   686.719   1.046   1.046   0.042   0.042   0.000   0.000
0.01125   0.00525   293.217   686.719   1.046   1.046   0.042   0.042   0.000   0.000
0.01375   0.00525   293.329   686.719   1.046   1.046   0.042   0.042   0.000   0.000
0.01625   0.00525   293.493   686.719   1.046   1.046   0.042   0.042   0.000   0.000
0.01875   0.00525   293.730   686.719   1.046   1.046   0.042   0.042   0.000   0.000
0.02125   0.00525   294.064   686.719   1.046   1.046   0.042   0.042   0.000   0.000
0.02375   0.00525   294.526   686.719   1.046   1.046   0.042   0.042   0.000   0.000
0.02625   0.00525   295.153   686.719   1.046   1.046   0.042   0.042   0.000   0.000
0.02875   0.00525   295.970   686.719   1.046   1.046   0.042   0.042   0.000   0.000
0.03125   0.00525   296.939   686.719   1.046   1.046   0.042   0.042   0.000   0.000
0.03375   0.00525   297.854   686.719   1.046   1.046   0.042   0.042   0.000   0.000
0.03625   0.00525   298.684   686.719   1.046   1.046   0.042   0.042   0.000   0.000
0.03875   0.00525   299.468   686.719   1.046   1.046   0.042   0.042   0.000   0.000
0.04125   0.00525   300.263   686.719   1.046   1.046   0.042   0.042   0.000   0.000
0.04375   0.00525   301.139   686.719   1.046   1.046   0.042   0.042   0.000   0.000
0.04625   0.00525   302.544   686.719   1.046   1.046   0.042   0.042   0.000   0.000
0.04875   0.00525   312.833   686.719   1.046   1.046   0.042   0.000   0.000   6.091
0.00125   0.00475   293.017   686.719   1.046   1.046   0.000   0.042   0.000   0.000
0.00375   0.00475   293.022   686.719   1.046   1.046   0.042   0.042   0.000   0.000
0.00625   0.00475   293.032   686.719   1.046   1.046   0.042   0.042   0.000   0.000
0.00875   0.00475   293.051   686.719   1.046   1.046   0.042   0.042   0.000   0.000
0.01125   0.00475   293.081   686.719   1.046   1.046   0.042   0.042   0.000   0.000
0.01375   0.00475   293.128   686.719   1.046   1.046   0.042   0.042   0.000   0.000
0.01625   0.00475   293.200   686.719   1.046   1.046   0.042   0.042   0.000   0.000
0.01875   0.00475   293.307   686.719   1.046   1.046   0.042   0.042   0.000   0.000
0.02125   0.00475   293.465   686.719   1.046   1.046   0.042   0.042   0.000   0.000
0.02375   0.00475   293.692   686.719   1.046   1.046   0.042   0.042   0.000   0.000
0.02625   0.00475   294.011   686.719   1.046   1.046   0.042   0.042   0.000   0.000
0.02875   0.00475   294.442   686.719   1.046   1.046   0.042   0.042   0.000   0.000
0.03125   0.00475   294.972   686.719   1.046   1.046   0.042   0.042   0.000   0.000
0.03375   0.00475   295.502   686.719   1.046   1.046   0.042   0.042   0.000   0.000
0.03625   0.00475   296.028   686.719   1.046   1.046   0.042   0.042   0.000   0.000
0.03875   0.00475   296.583   686.719   1.046   1.046   0.042   0.042   0.000   0.000
0.04125   0.00475   297.210   686.719   1.046   1.046   0.042   0.042   0.000   0.000
0.04375   0.00475   297.971   686.719   1.046   1.046   0.042   0.042   0.000   0.000
0.04625   0.00475   299.304   686.719   1.046   1.046   0.042   0.042   0.000   0.000
0.04875   0.00475   309.561   686.719   1.046   1.046   0.042   0.000   0.000   6.095
0.00125   0.00425   293.008   686.719   1.046   2.085   0.000   0.042   0.000   0.000
0.00375   0.00425   293.011   686.719   1.046   2.085   0.042   0.042   0.000   0.000
0.00625   0.00425   293.017   686.719   1.046   2.085   0.042   0.042   0.000   0.000
0.00875   0.00425   293.027   686.719   1.046   2.085   0.042   0.042   0.000   0.000
0.01125   0.00425   293.044   686.719   1.046   2.085   0.042   0.042   0.000   0.000
0.01375   0.00425   293.070   686.719   1.046   2.085   0.042   0.042   0.000   0.000
0.01625   0.00425   293.112   686.719   1.046   2.085   0.042   0.042   0.000   0.000
0.01875   0.00425   293.174   686.719   1.046   2.085   0.042   0.042   0.000   0.000
0.02125   0.00425   293.267   686.719   1.046   2.085   0.042   0.042   0.000   0.000
0.02375   0.00425   293.402   686.719   1.046   2.085   0.042   0.042   0.000   0.000
0.02625   0.00425   293.593   686.719   1.046   2.085   0.042   0.042   0.000   0.000
0.02875   0.00425   293.857   686.719   1.046   2.085   0.042   0.042   0.000   0.000
0.03125   0.00425   294.199   686.719   1.046   2.085   0.042   0.042   0.000   0.000
0.03375   0.00425   294.603   686.719   1.046   2.085   0.042   0.042   0.000   0.000
0.03625   0.00425   295.081   686.719   1.046   2.085   0.042   0.042   0.000   0.000
0.03875   0.00425   295.660   686.719   1.046   2.085   0.042   0.042   0.000   0.000
0.04125   0.00425   296.370   686.719   1.046   2.085   0.042   0.042   0.000   0.000
0.04375   0.00425   297.248   686.719   1.046   2.085   0.042   0.042   0.000   0.000
0.04625   0.00425   298.505   686.719   1.046   2.085   0.042   0.042   0.000   0.000
0.04875   0.00425   304.581   686.719   1.046   2.085   0.042   0.000   0.000   6.100
0.00125   0.00375   293.012   1137.797   2.085   268.000   0.000   10.720   0.000   0.000
0.00375   0.00375   293.015   1137.797   2.085   268.000   10.720   10.720   0.000   0.000
0.00625   0.00375   293.022   1137.797   2.085   268.000   10.720   10.720   0.000   0.000
0.00875   0.00375   293.034   1137.797   2.085   268.000   10.720   10.720   0.000   0.000
0.01125   0.00375   293.054   1137.797   2.085   268.000   10.720   10.720   0.000   0.000
0.01375   0.00375   293.085   1137.797   2.085   268.000   10.720   10.720   0.000   0.000
0.01625   0.00375   293.130   1137.797   2.085   268.000   10.720   10.720   0.000   0.000
0.01875   0.00375   293.197   1137.797   2.085   268.000   10.720   10.720   0.000   0.000
0.02125   0.00375   293.292   1137.797   2.085   268.000   10.720   10.720   0.000   0.000
0.02375   0.00375   293.426   1137.797   2.085   268.000   10.720   10.720   0.000   0.000
0.02625   0.00375   293.611   1137.797   2.085   268.000   10.720   10.720   0.000   0.000
0.02875   0.00375   293.859   1137.797   2.085   268.000   10.720   10.720   0.000   0.000
0.03125   0.00375   294.187   1137.797   2.085   268.000   10.720   10.720   0.000   0.000
0.03375   0.00375   294.611   1137.797   2.085   268.000   10.720   10.720   0.000   0.000
0.03625   0.00375   295.151   1137.797   2.085   268.000   10.720   10.720   0.000   0.000
0.03875   0.00375   295.828   1137.797   2.085   268.000   10.720   10.720   0.000   0.000
0.04125   0.00375   296.662   1137.797   2.085   268.000   10.720   10.720   0.000   0.000
0.04375   0.00375   297.675   1137.797   2.085   268.000   10.720   10.720   0.000   0.000
0.04625   0.00375   298.894   1137.797   2.085   268.000   10.720   10.720   0.000   0.000
0.04875   0.00375   300.369   1137.797   2.085   268.000   10.720   0.000   0.000   16.276
0.00125   0.00325   293.012   1137.797   268.000   268.000   0.000   10.720   0.000   0.000
0.00375   0.00325   293.015   1137.797   268.000   268.000   10.720   10.720   0.000   0.000
0.00625   0.00325   293.022   1137.797   268.000   268.000   10.720   10.720   0.000   0.000
0.00875   0.00325   293.035   1137.797   268.000   268.000   10.720   10.720   0.000   0.000
0.01125   0.00325   293.054   1137.797   268.000   268.000   10.720   10.720   0.000   0.000
0.01375   0.00325   293.085   1137.797   268.000   268.000   10.720   10.720   0.000   0.000
0.01625   0.00325   293.130   1137.797   268.000   268.000   10.720   10.720   0.000   0.000
0.01875   0.00325   293.197   1137.797   268.000   268.000   10.720   10.720   0.000   0.000
0.02125   0.00325   293.293   1137.797   268.000   268.000   10.720   10.720   0.000   0.000
0.02375   0.00325   293.427   1137.797   268.000   268.000   10.720   10.720   0.000   0.000
0.02625   0.00325   293.611   1137.797   268.000   268.000   10.720   10.720   0.000   0.000
0.02875   0.00325   293.859   1137.797   268.000   268.000   10.720   10.720   0.000   0.000
0.03125   0.00325   294.187   1137.797   268.000   268.000   10.720   10.720   0.000   0.000
0.03375   0.00325   294.612   1137.797   268.000   268.000   10.720   10.720   0.000   0.000
0.03625   0.00325   295.152   1137.797   268.000   268.000   10.720   10.720   0.000   0.000
0.03875   0.00325   295.829   1137.797   268.000   268.000   10.720   10.720   0.000   0.000
0.04125   0.00325   296.664   1137.797   268.000   268.000   10.720   10.720   0.000   0.000
0.04375   0.00325   297.678   1137.797   268.000   268.000   10.720   10.720   0.000   0.000
0.04625   0.00325   298.895   1137.797   268.000   268.000   10.720   10.720   0.000   0.000
0.04875   0.00325   300.343   1137.797   268.000   268.000   10.720   0.000   0.000   16.276
0.00125   0.00275   293.012   1137.797   268.000   268.000   0.000   10.720   0.000   0.000
0.00375   0.00275   293.015   1137.797   268.000   268.000   10.720   10.720   0.000   0.000
0.00625   0.00275   293.022   1137.797   268.000   268.000   10.720   10.720   0.000   0.000
0.00875   0.00275   293.035   1137.797   268.000   268.000   10.720   10.720   0.000   0.000
0.01125   0.00275   293.054   1137.797   268.000   268.000   10.720   10.720   0.000   0.000
0.01375   0.00275   293.085   1137.797   268.000   268.000   10.720   10.720   0.000   0.000
0.01625   0.00275   293.131   1137.797   268.000   268.000   10.720   10.720   0.000   0.000
0.01875   0.00275   293.197   1137.797   268.000   268.000   10.720   10.720   0.000   0.000
0.02125   0.00275   293.293   1137.797   268.000   268.000   10.720   10.720   0.000   0.000
0.02375   0.00275   293.427   1137.797   268.000   268.000   10.720   10.720   0.000   0.000
0.02625   0.00275   293.611   1137.797   268.000   268.000   10.720   10.720   0.000   0.000
0.02875   0.00275   293.859   1137.797   268.000   268.000   10.720   10.720   0.000   0.000
0.03125   0.00275   294.187   1137.797   268.000   268.000   10.720   10.720   0.000   0.000
0.03375   0.00275   294.612   1137.797   268.000   268.000   10.720   10.720   0.000   0.000
0.03625   0.00275   295.152   1137.797   268.000   268.000   10.720   10.720   0.000   0.000
0.03875   0.00275   295.830   1137.797   268.000   268.000   10.720   10.720   0.000   0.000
0.04125   0.00275   296.665   1137.797   268.000   268.000   10.720   10.720   0.000   0.000
0.04375   0.00275   297.680   1137.797   268.000   268.000   10.720   10.720   0.000   0.000
0.04625   0.00275   298.894   1137.797   268.000   268.000   10.720   10.720   0.000   0.000
0.04875   0.00275   300.322   1137.797   268.000   268.000   10.720   0.000   0.000   16.276
0.00125   0.00225   293.012   1137.797   268.000   268.000   0.000   10.720   0.000   0.000
0.00375   0.00225   293.015   1137.797   268.000   268.000   10.720   10.720   0.000   0.000
0.00625   0.00225   293.022   1137.797   268.000   268.000   10.720   10.720   0.000   0.000
0.00875   0.00225   293.035   1137.797   268.000   268.000   10.720   10.720   0.000   0.000
0.01125   0.00225   293.054   1137.797   268.000   268.000   10.720   10.720   0.000   0.000
0.01375   0.00225   293.085   1137.797   268.000   268.000   10.720   10.720   0.000   0.000
0.01625   0.00225   293.131   1137.797   268.000   268.000   10.720   10.720   0.000   0.000
0.01875   0.00225   293.197   1137.797   268.000   268.000   10.720   10.720   0.000   0.000
0.02125   0.00225   293.293   1137.797   268.000   268.000   10.720   10.720   0.000   0.000
0.02375   0.00225   293.427   1137.797   268.000   268.000   10.720   10.720   0.000   0.000
0.02625   0.00225   293.611   1137.797   268.000   268.000   10.720   10.720   0.000   0.000
0.02875   0.00225   293.859   1137.797   268.000   268.000   10.720   10.720   0.000   0.000
0.03125   0.00225   294.187   1137.797   268.000   268.000   10.720   10.720   0.000   0.000
0.03375   0.00225   294.612   1137.797   268.000   268.000   10.720   10.720   0.000   0.000
0.03625   0.00225   295.153   1137.797   268.000   268.000   10.720   10.720   0.000   0.000
0.03875   0.00225   295.831   1137.797   268.000   268.000   10.720   10.720   0.000   0.000
0.04125   0.00225   296.667   1137.797   268.000   268.000   10.720   10.720   0.000   0.000
0.04375   0.00225   297.682   1137.797   268.000   268.000   10.720   10.720   0.000   0.000
0.04625   0.00225   298.893   1137.797   268.000   268.000   10.720   10.720   0.000   0.000
0.04875   0.00225   300.306   1137.797   268.000   268.000   10.720   0.000   0.000   16.276
0.00125   0.00175   293.012   1137.797   268.000   268.000   0.000   10.720   0.000   0.000
0.00375   0.00175   293.015   1137.797   268.000   268.000   10.720   10.720   0.000   0.000
0.00625   0.00175   293.022   1137.797   268.000   268.000   10.720   10.720   0.000   0.000
0.00875   0.00175   293.035   1137.797   268.000   268.000   10.720   10.720   0.000   0.000
0.01125   0.00175   293.055   1137.797   268.000   268.000   10.720   10.720   0.000   0.000
0.01375   0.00175   293.085   1137.797   268.000   268.000   10.720   10.720   0.000   0.000
0.01625   0.00175   293.131   1137.797   268.000   268.000   10.720   10.720   0.000   0.000
0.01875   0.00175   293.197   1137.797   268.000   268.000   10.720   10.720   0.000   0.000
0.02125   0.00175   293.293   1137.797   268.000   268.000   10.720   10.720   0.000   0.000