VARIABLES = X, Y, T, ap,an,as,aw,ae,sp,su
ZONE I=20,J=20, F=POINT,t="2.068"
0.00125   0.00975   293.000   1137.797   0.000   268.000   0.000   10.720   0.000   -0.000
0.00375   0.00975   293.000   1137.797   0.000   268.000   10.720   10.720   0.000   -0.000
0.00625   0.00975   293.001   1137.797   0.000   268.000   10.720   10.720   0.000   -0.000
0.00875   0.00975   293.003   1137.797   0.000   268.000   10.720   10.720   0.000   -0.000
0.01125   0.00975   293.008   1137.797   0.000   268.000   10.720   10.720   0.000   -0.000
0.01375   0.00975   293.021   1137.797   0.000   268.000   10.720   10.720   0.000   -0.000
0.01625   0.00975   293.051   1137.797   0.000   268.000   10.720   10.720   0.000   -0.000
0.01875   0.00975   293.116   1137.797   0.000   268.000   10.720   10.720   0.000   -0.000
0.02125   0.00975   293.248   1137.797   0.000   268.000   10.720   10.720   0.000   -0.000
0.02375   0.00975   293.500   1137.797   0.000   268.000   10.720   10.720   0.000   -0.000
0.02625   0.00975   293.957   1137.797   0.000   268.000   10.720   10.720   0.000   -0.001
0.02875   0.00975   294.766   1137.797   0.000   268.000   10.720   10.720   0.000   -0.001
0.03125   0.00975   296.435   1137.797   0.000   268.000   10.720   10.720   0.000   81.426
0.03375   0.00975   297.277   1137.797   0.000   268.000   10.720   10.720   0.000   81.415
0.03625   0.00975   297.814   1137.797   0.000   268.000   10.720   10.720   0.000   81.408
0.03875   0.00975   298.230   1137.797   0.000   268.000   10.720   10.720   0.000   81.403
0.04125   0.00975   298.662   1137.797   0.000   268.000   10.720   10.720   0.000   81.397
0.04375   0.00975   299.233   1137.797   0.000   268.000   10.720   10.720   0.000   81.390
0.04625   0.00975   300.055   1137.797   0.000   268.000   10.720   10.720   0.000   81.379
0.04875   0.00975   301.212   1137.797   0.000   268.000   10.720   0.000   0.000   97.638
0.00125   0.00925   293.000   1137.797   268.000   268.000   0.000   10.720   0.000   0.000
0.00375   0.00925   293.000   1137.797   268.000   268.000   10.720   10.720   0.000   0.000
0.00625   0.00925   293.001   1137.797   268.000   268.000   10.720   10.720   0.000   0.000
0.00875   0.00925   293.003   1137.797   268.000   268.000   10.720   10.720   0.000   0.000
0.01125   0.00925   293.008   1137.797   268.000   268.000   10.720   10.720   0.000   0.000
0.01375   0.00925   293.021   1137.797   268.000   268.000   10.720   10.720   0.000   0.000
0.01625   0.00925   293.051   1137.797   268.000   268.000   10.720   10.720   0.000   0.000
0.01875   0.00925   293.115   1137.797   268.000   268.000   10.720   10.720   0.000   0.000
0.02125   0.00925   293.247   1137.797   268.000   268.000   10.720   10.720   0.000   0.000
0.02375   0.00925   293.499   1137.797   268.000   268.000   10.720   10.720   0.000   0.000
0.02625   0.00925   293.954   1137.797   268.000   268.000   10.720   10.720   0.000   0.000
0.02875   0.00925   294.748   1137.797   268.000   268.000   10.720   10.720   0.000   0.000
0.03125   0.00925   296.185   1137.797   268.000   268.000   10.720   10.720   0.000   0.000
0.03375   0.00925   297.012   1137.797   268.000   268.000   10.720   10.720   0.000   0.000
0.03625   0.00925   297.547   1137.797   268.000   268.000   10.720   10.720   0.000   0.000
0.03875   0.00925   297.962   1137.797   268.000   268.000   10.720   10.720   0.000   0.000
0.04125   0.00925   298.393   1137.797   268.000   268.000   10.720   10.720   0.000   0.000
0.04375   0.00925   298.965   1137.797   268.000   268.000   10.720   10.720   0.000   0.000
0.04625   0.00925   299.787   1137.797   268.000   268.000   10.720   10.720   0.000   0.000
0.04875   0.00925   300.945   1137.797   268.000   268.000   10.720   0.000   0.000   16.275
0.00125   0.00875   293.000   1137.797   268.000   268.000   0.000   10.720   0.000   0.000
0.00375   0.00875   293.000   1137.797   268.000   268.000   10.720   10.720   0.000   0.000
0.00625   0.00875   293.001   1137.797   268.000   268.000   10.720   10.720   0.000   0.000
0.00875   0.00875   293.003   1137.797   268.000   268.000   10.720   10.720   0.000   0.000
0.01125   0.00875   293.008   1137.797   268.000   268.000   10.720   10.720   0.000   0.000
0.01375   0.00875   293.021   1137.797   268.000   268.000   10.720   10.720   0.000   0.000
0.01625   0.00875   293.051   1137.797   268.000   268.000   10.720   10.720   0.000   0.000
0.01875   0.00875   293.115   1137.797   268.000   268.000   10.720   10.720   0.000   0.000
0.02125   0.00875   293.247   1137.797   268.000   268.000   10.720   10.720   0.000   0.000
0.02375   0.00875   293.498   1137.797   268.000   268.000   10.720   10.720   0.000   0.000
0.02625   0.00875   293.949   1137.797   268.000   268.000   10.720   10.720   0.000   0.000
0.02875   0.00875   294.720   1137.797   268.000   268.000   10.720   10.720   0.000   0.000
0.03125   0.00875   295.981   1137.797   268.000   268.000   10.720   10.720   0.000   0.000
0.03375   0.00875   296.784   1137.797   268.000   268.000   10.720   10.720   0.000   0.000
0.03625   0.00875   297.316   1137.797   268.000   268.000   10.720   10.720   0.000   0.000
0.03875   0.00875   297.730   1137.797   268.000   268.000   10.720   10.720   0.000   0.000
0.04125   0.00875   298.161   1137.797   268.000   268.000   10.720   10.720   0.000   0.000
0.04375   0.00875   298.731   1137.797   268.000   268.000   10.720   10.720   0.000   0.000
0.04625   0.00875   299.554   1137.797   268.000   268.000   10.720   10.720   0.000   0.000
0.04875   0.00875   300.714   1137.797   268.000   268.000   10.720   0.000   0.000   16.275
0.00125   0.00825   293.000   1137.797   268.000   268.000   0.000   10.720   0.000   0.000
0.00375   0.00825   293.000   1137.797   268.000   268.000   10.720   10.720   0.000   0.000
0.00625   0.00825   293.001   1137.797   268.000   268.000   10.720   10.720   0.000   0.000
0.00875   0.00825   293.003   1137.797   268.000   268.000   10.720   10.720   0.000   0.000
0.01125   0.00825   293.008   1137.797   268.000   268.000   10.720   10.720   0.000   0.000
0.01375   0.00825   293.021   1137.797   268.000   268.000   10.720   10.720   0.000   0.000
0.01625   0.00825   293.050   1137.797   268.000   268.000   10.720   10.720   0.000   0.000
0.01875   0.00825   293.115   1137.797   268.000   268.000   10.720   10.720   0.000   0.000
0.02125   0.00825   293.246   1137.797   268.000   268.000   10.720   10.720   0.000   0.000
0.02375   0.00825   293.496   1137.797   268.000   268.000   10.720   10.720   0.000   0.000
0.02625   0.00825   293.942   1137.797   268.000   268.000   10.720   10.720   0.000   0.000
0.02875   0.00825   294.688   1137.797   268.000   268.000   10.720   10.720   0.000   0.000
0.03125   0.00825   295.816   1137.797   268.000   268.000   10.720   10.720   0.000   0.000
0.03375   0.00825   296.594   1137.797   268.000   268.000   10.720   10.720   0.000   0.000
0.03625   0.00825   297.121   1137.797   268.000   268.000   10.720   10.720   0.000   0.000
0.03875   0.00825   297.533   1137.797   268.000   268.000   10.720   10.720   0.000   0.000
0.04125   0.00825   297.963   1137.797   268.000   268.000   10.720   10.720   0.000   0.000
0.04375   0.00825   298.533   1137.797   268.000   268.000   10.720   10.720   0.000   0.000
0.04625   0.00825   299.356   1137.797   268.000   268.000   10.720   10.720   0.000   0.000
0.04875   0.00825   300.519   1137.797   268.000   268.000   10.720   0.000   0.000   16.276
0.00125   0.00775   293.000   1137.797   268.000   268.000   0.000   10.720   0.000   0.000
0.00375   0.00775   293.000   1137.797   268.000   268.000   10.720   10.720   0.000   0.000
0.00625   0.00775   293.001   1137.797   268.000   268.000   10.720   10.720   0.000   0.000
0.00875   0.00775   293.003   1137.797   268.000   268.000   10.720   10.720   0.000   0.000
0.01125   0.00775   293.008   1137.797   268.000   268.000   10.720   10.720   0.000   0.000
0.01375   0.00775   293.021   1137.797   268.000   268.000   10.720   10.720   0.000   0.000
0.01625   0.00775   293.050   1137.797   268.000   268.000   10.720   10.720   0.000   0.000
0.01875   0.00775   293.115   1137.797   268.000   268.000   10.720   10.720   0.000   0.000
0.02125   0.00775   293.245   1137.797   268.000   268.000   10.720   10.720   0.000   0.000
0.02375   0.00775   293.494   1137.797   268.000   268.000   10.720   10.720   0.000   0.000
0.02625   0.00775   293.935   1137.797   268.000   268.000   10.720   10.720   0.000   0.000
0.02875   0.00775   294.657   1137.797   268.000   268.000   10.720   10.720   0.000   0.000
0.03125   0.00775   295.686   1137.797   268.000   268.000   10.720   10.720   0.000   0.000
0.03375   0.00775   296.441   1137.797   268.000   268.000   10.720   10.720   0.000   0.000
0.03625   0.00775   296.962   1137.797   268.000   268.000   10.720   10.720   0.000   0.000
0.03875   0.00775   297.373   1137.797   268.000   268.000   10.720   10.720   0.000   0.000
0.04125   0.00775   297.801   1137.797   268.000   268.000   10.720   10.720   0.000   0.000
0.04375   0.00775   298.370   1137.797   268.000   268.000   10.720   10.720   0.000   0.000
0.04625   0.00775   299.193   1137.797   268.000   268.000   10.720   10.720   0.000   0.000
0.04875   0.00775   300.360   1137.797   268.000   268.000   10.720   0.000   0.000   16.276
0.00125   0.00725   293.000   1137.797   268.000   268.000   0.000   10.720   0.000   0.000
0.00375   0.00725   293.000   1137.797   268.000   268.000   10.720   10.720   0.000   0.000
0.00625   0.00725   293.001   1137.797   268.000   268.000   10.720   10.720   0.000   0.000
0.00875   0.00725   293.003   1137.797   268.000   268.000   10.720   10.720   0.000   0.000
0.01125   0.00725   293.008   1137.797   268.000   268.000   10.720   10.720   0.000   0.000
0.01375   0.00725   293.021   1137.797   268.000   268.000   10.720   10.720   0.000   0.000
0.01625   0.00725   293.050   1137.797   268.000   268.000   10.720   10.720   0.000   0.000
0.01875   0.00725   293.114   1137.797   268.000   268.000   10.720   10.720   0.000   0.000
0.02125   0.00725   293.245   1137.797   268.000   268.000   10.720   10.720   0.000   0.000
0.02375   0.00725   293.492   1137.797   268.000   268.000   10.720   10.720   0.000   0.000
0.02625   0.00725   293.927   1137.797   268.000   268.000   10.720   10.720   0.000   0.000
0.02875   0.00725   294.630   1137.797   268.000   268.000   10.720   10.720   0.000   0.000
0.03125   0.00725   295.588   1137.797   268.000   268.000   10.720   10.720   0.000   0.000
0.03375   0.00725   296.323   1137.797   268.000   268.000   10.720   10.720   0.000   0.000
0.03625   0.00725   296.838   1137.797   268.000   268.000   10.720   10.720   0.000   0.000
0.03875   0.00725   297.247   1137.797   268.000   268.000   10.720   10.720   0.000   0.000
0.04125   0.00725   297.675   1137.797   268.000   268.000   10.720   10.720   0.000   0.000
0.04375   0.00725   298.243   1137.797   268.000   268.000   10.720   10.720   0.000   0.000
0.04625   0.00725   299.065   1137.797   268.000   268.000   10.720   10.720   0.000   0.000
0.04875   0.00725   300.238   1137.797   268.000   268.000   10.720   0.000   0.000   16.276
0.00125   0.00675   293.000   1137.797   268.000   268.000   0.000   10.720   0.000   0.000
0.00375   0.00675   293.000   1137.797   268.000   268.000   10.720   10.720   0.000   0.000
0.00625   0.00675   293.001   1137.797   268.000   268.000   10.720   10.720   0.000   0.000
0.00875   0.00675   293.003   1137.797   268.000   268.000   10.720   10.720   0.000   0.000
0.01125   0.00675   293.008   1137.797   268.000   268.000   10.720   10.720   0.000   0.000
0.01375   0.00675   293.021   1137.797   268.000   268.000   10.720   10.720   0.000   0.000
0.01625   0.00675   293.050   1137.797   268.000   268.000   10.720   10.720   0.000   0.000
0.01875   0.00675   293.114   1137.797   268.000   268.000   10.720   10.720   0.000   0.000
0.02125   0.00675   293.243   1137.797   268.000   268.000   10.720   10.720   0.000   0.000
0.02375   0.00675   293.489   1137.797   268.000   268.000   10.720   10.720   0.000   0.000
0.02625   0.00675   293.921   1137.797   268.000   268.000   10.720   10.720   0.000   0.000
0.02875   0.00675   294.608   1137.797   268.000   268.000   10.720   10.720   0.000   0.000
0.03125   0.00675   295.520   1137.797   268.000   268.000   10.720   10.720   0.000   0.000
0.03375   0.00675   296.239   1137.797   268.000   268.000   10.720   10.720   0.000   0.000
0.03625   0.00675   296.751   1137.797   268.000   268.000   10.720   10.720   0.000   0.000
0.03875   0.00675   297.158   1137.797   268.000   268.000   10.720   10.720   0.000   0.000
0.04125   0.00675   297.584   1137.797   268.000   268.000   10.720   10.720   0.000   0.000
0.04375   0.00675   298.150   1137.797   268.000   268.000   10.720   10.720   0.000   0.000
0.04625   0.00675   298.971   1137.797   268.000   268.000   10.720   10.720   0.000   0.000
0.04875   0.00675   300.153   1137.797   268.000   268.000   10.720   0.000   0.000   16.277
0.00125   0.00625   293.000   1137.797   268.000   2.085   0.000   10.720   0.000   0.000
0.00375   0.00625   293.000   1137.797   268.000   2.085   10.720   10.720   0.000   0.000
0.00625   0.00625   293.001   1137.797   268.000   2.085   10.720   10.720   0.000   0.000
0.00875   0.00625   293.003   1137.797   268.000   2.085   10.720   10.720   0.000   0.000
0.01125   0.00625   293.008   1137.797   268.000   2.085   10.720   10.720   0.000   0.000
0.01375   0.00625   293.020   1137.797   268.000   2.085   10.720   10.720   0.000   0.000
0.01625   0.00625   293.050   1137.797   268.000   2.085   10.720   10.720   0.000   0.000
0.01875   0.00625   293.113   1137.797   268.000   2.085   10.720   10.720   0.000   0.000
0.02125   0.00625   293.242   1137.797   268.000   2.085   10.720   10.720   0.000   0.000
0.02375   0.00625   293.487   1137.797   268.000   2.085   10.720   10.720   0.000   0.000
0.02625   0.00625   293.915   1137.797   268.000   2.085   10.720   10.720   0.000   0.000
0.02875   0.00625   294.593   1137.797   268.000   2.085   10.720   10.720   0.000   0.000
0.03125   0.00625   295.481   1137.797   268.000   2.085   10.720   10.720   0.000   0.000
0.03375   0.00625   296.191   1137.797   268.000   2.085   10.720   10.720   0.000   0.000
0.03625   0.00625   296.698   1137.797   268.000   2.085   10.720   10.720   0.000   0.000
0.03875   0.00625   297.103   1137.797   268.000   2.085   10.720   10.720   0.000   0.000
0.04125   0.00625   297.527   1137.797   268.000   2.085   10.720   10.720   0.000   0.000
0.04375   0.00625   298.091   1137.797   268.000   2.085   10.720   10.720   0.000   0.000
0.04625   0.00625   298.911   1137.797   268.000   2.085   10.720   10.720   0.000   0.000
0.04875   0.00625   300.105   1137.797   268.000   2.085   10.720   0.000   0.000   16.277
0.00125   0.00575   293.000   686.719   2.085   1.046   0.000   0.042   0.000   0.000
0.00375   0.00575   293.000   686.719   2.085   1.046   0.042   0.042   0.000   0.000
0.00625   0.00575   293.000   686.719   2.085   1.046   0.042   0.042   0.000   0.000
0.00875   0.00575   293.001   686.719   2.085   1.046   0.042   0.042   0.000   0.000
0.01125   0.00575   293.002   686.719   2.085   1.046   0.042   0.042   0.000   0.000
0.01375   0.00575   293.005   686.719   2.085   1.046   0.042   0.042   0.000   0.000
0.01625   0.00575   293.012   686.719   2.085   1.046   0.042   0.042   0.000   0.000
0.01875   0.00575   293.030   686.719   2.085   1.046   0.042   0.042   0.000   0.000
0.02125   0.00575   293.071   686.719   2.085   1.046   0.042   0.042   0.000   0.000
0.02375   0.00575   293.158   686.719   2.085   1.046   0.042   0.042   0.000   0.000
0.02625   0.00575   293.328   686.719   2.085   1.046   0.042   0.042   0.000   0.000
0.02875   0.00575   293.621   686.719   2.085   1.046   0.042   0.042   0.000   0.000
0.03125   0.00575   294.027   686.719   2.085   1.046   0.042   0.042   0.000   0.000
0.03375   0.00575   294.329   686.719   2.085   1.046   0.042   0.042   0.000   0.000
0.03625   0.00575   294.522   686.719   2.085   1.046   0.042   0.042   0.000   0.000
0.03875   0.00575   294.664   686.719   2.085   1.046   0.042   0.042   0.000   0.000
0.04125   0.00575   294.818   686.719   2.085   1.046   0.042   0.042   0.000   0.000
0.04375   0.00575   295.054   686.719   2.085   1.046   0.042   0.042   0.000   0.000
0.04625   0.00575   295.487   686.719   2.085   1.046   0.042   0.042   0.000   0.000
0.04875   0.00575   298.723   686.719   2.085   1.046   0.042   0.000   0.000   6.105
0.00125   0.00525   293.000   686.719   1.046   1.046   0.000   0.042   0.000   0.000
0.00375   0.00525   293.000   686.719   1.046   1.046   0.042   0.042   0.000   0.000
0.00625   0.00525   293.000   686.719   1.046   1.046   0.042   0.042   0.000   0.000
0.00875   0.00525   293.000   686.719   1.046   1.046   0.042   0.042   0.000   0.000
0.01125   0.00525   293.000   686.719   1.046   1.046   0.042   0.042   0.000   0.000
0.01375   0.00525   293.000   686.719   1.046   1.046   0.042   0.042   0.000   0.000
0.01625   0.00525   293.001   686.719   1.046   1.046   0.042   0.042   0.000   0.000
0.01875   0.00525   293.004   686.719   1.046   1.046   0.042   0.042   0.000   0.000
0.02125   0.00525   293.010   686.719   1.046   1.046   0.042   0.042   0.000   0.000
0.02375   0.00525   293.025   686.719   1.046   1.046   0.042   0.042   0.000   0.000
0.02625   0.00525   293.057   686.719   1.046   1.046   0.042   0.042   0.000   0.000
0.02875   0.00525   293.118   686.719   1.046   1.046   0.042   0.042   0.000   0.000
0.03125   0.00525   293.208   686.719   1.046   1.046   0.042   0.042   0.000   0.000
0.03375   0.00525   293.270   686.719   1.046   1.046   0.042   0.042   0.000   0.000
0.03625   0.00525   293.306   686.719   1.046   1.046   0.042   0.042   0.000   0.000
0.03875   0.00525   293.330   686.719   1.046   1.046   0.042   0.042   0.000   0.000
0.04125   0.00525   293.360   686.719   1.046   1.046   0.042   0.042   0.000   0.000
0.04375   0.00525   293.414   686.719   1.046   1.046   0.042   0.042   0.000   0.000
0.04625   0.00525   293.583   686.719   1.046   1.046   0.042   0.042   0.000   0.000
0.04875   0.00525   297.791   686.719   1.046   1.046   0.042   0.000   0.000   6.106
0.00125   0.00475   293.000   686.719   1.046   1.046   0.000   0.042   0.000   0.000
0.00375   0.00475   293.000   686.719   1.046   1.046   0.042   0.042   0.000   0.000
0.00625   0.00475   293.000   686.719   1.046   1.046   0.042   0.042   0.000   0.000
0.00875   0.00475   293.000   686.719   1.046   1.046   0.042   0.042   0.000   0.000
0.01125   0.00475   293.000   686.719   1.046   1.046   0.042   0.042   0.000   0.000
0.01375   0.00475   293.000   686.719   1.046   1.046   0.042   0.042   0.000   0.000
0.01625   0.00475   293.000   686.719   1.046   1.046   0.042   0.042   0.000   0.000
0.01875   0.00475   293.000   686.719   1.046   1.046   0.042   0.042   0.000   0.000
0.02125   0.00475   293.001   686.719   1.046   1.046   0.042   0.042   0.000   0.000
0.02375   0.00475   293.003   686.719   1.046   1.046   0.042   0.042   0.000   0.000
0.02625   0.00475   293.008   686.719   1.046   1.046   0.042   0.042   0.000   0.000
0.02875   0.00475   293.018   686.719   1.046   1.046   0.042   0.042   0.000   0.000
0.03125   0.00475   293.034   686.719   1.046   1.046   0.042   0.042   0.000   0.000
0.03375   0.00475   293.046   686.719   1.046   1.046   0.042   0.042   0.000   0.000
0.03625   0.00475   293.055   686.719   1.046   1.046   0.042   0.042   0.000   0.000
0.03875   0.00475   293.066   686.719   1.046   1.046   0.042   0.042   0.000   0.000
0.04125   0.00475   293.090   686.719   1.046   1.046   0.042   0.042   0.000   0.000
0.04375   0.00475   293.143   686.719   1.046   1.046   0.042   0.042   0.000   0.000
0.04625   0.00475   293.310   686.719   1.046   1.046   0.042   0.042   0.000   0.000
0.04875   0.00475   297.519   686.719   1.046   1.046   0.042   0.000   0.000   6.106
0.00125   0.00425   293.000   686.719   1.046   2.085   0.000   0.042   0.000   0.000
0.00375   0.00425   293.000   686.719   1.046   2.085   0.042   0.042   0.000   0.000
0.00625   0.00425   293.000   686.719   1.046   2.085   0.042   0.042   0.000   0.000
0.00875   0.00425   293.000   686.719   1.046   2.085   0.042   0.042   0.000   0.000
0.01125   0.00425   293.000   686.719   1.046   2.085   0.042   0.042   0.000   0.000
0.01375   0.00425   293.000   686.719   1.046   2.085   0.042   0.042   0.000   0.000
0.01625   0.00425   293.000   686.719   1.046   2.085   0.042   0.042   0.000   0.000
0.01875   0.00425   293.000   686.719   1.046   2.085   0.042   0.042   0.000   0.000
0.02125   0.00425   293.000   686.719   1.046   2.085   0.042   0.042   0.000   0.000
0.02375   0.00425   293.001   686.719   1.046   2.085   0.042   0.042   0.000   0.000
0.02625   0.00425   293.002   686.719   1.046   2.085   0.042   0.042   0.000   0.000
0.02875   0.00425   293.004   686.719   1.046   2.085   0.042   0.042   0.000   0.000
0.03125   0.00425   293.010   686.719   1.046   2.085   0.042   0.042   0.000   0.000
0.03375   0.00425   293.022   686.719   1.046   2.085   0.042   0.042   0.000   0.000
0.03625   0.00425   293.047   686.719   1.046   2.085   0.042   0.042   0.000   0.000
0.03875   0.00425   293.102   686.719   1.046   2.085   0.042   0.042   0.000   0.000
0.04125   0.00425   293.215   686.719   1.046   2.085   0.042   0.042   0.000   0.000
0.04375   0.00425   293.434   686.719   1.046   2.085   0.042   0.042   0.000   0.000
0.04625   0.00425   293.859   686.719   1.046   2.085   0.042   0.042   0.000   0.000
0.04875   0.00425   297.093   686.719   1.046   2.085   0.042   0.000   0.000   6.107
0.00125   0.00375   293.000   1137.797   2.085   268.000   0.000   10.720   0.000   0.000
0.00375   0.00375   293.000   1137.797   2.085   268.000   10.720   10.720   0.000   0.000
0.00625   0.00375   293.000   1137.797   2.085   268.000   10.720   10.720   0.000   0.000
0.00875   0.00375   293.000   1137.797   2.085   268.000   10.720   10.720   0.000   0.000
0.01125   0.00375   293.000   1137.797   2.085   268.000   10.720   10.720   0.000   0.000
0.01375   0.00375   293.000   1137.797   2.085   268.000   10.720   10.720   0.000   0.000
0.01625   0.00375   293.000   1137.797   2.085   268.000   10.720   10.720   0.000   0.000
0.01875   0.00375   293.000   1137.797   2.085   268.000   10.720   10.720   0.000   0.000
0.02125   0.00375   293.000   1137.797   2.085   268.000   10.720   10.720   0.000   0.000
0.02375   0.00375   293.001   1137.797   2.085   268.000   10.720   10.720   0.000   0.000
0.02625   0.00375   293.004   1137.797   2.085   268.000   10.720   10.720   0.000   0.000
0.02875   0.00375   293.011   1137.797   2.085   268.000   10.720   10.720   0.000   0.000
0.03125   0.00375   293.028   1137.797   2.085   268.000   10.720   10.720   0.000   0.000
0.03375   0.00375   293.067   1137.797   2.085   268.000   10.720   10.720   0.000   0.000
0.03625   0.00375   293.149   1137.797   2.085   268.000   10.720   10.720   0.000   0.000
0.03875   0.00375   293.311   1137.797   2.085   268.000   10.720   10.720   0.000   0.000
0.04125   0.00375   293.607   1137.797   2.085   268.000   10.720   10.720   0.000   0.000
0.04375   0.00375   294.108   1137.797   2.085   268.000   10.720   10.720   0.000   0.000
0.04625   0.00375   294.899   1137.797   2.085   268.000   10.720   10.720   0.000   0.000
0.04875   0.00375   296.083   1137.797   2.085   268.000   10.720   0.000   0.000   16.286
0.00125   0.00325   293.000   1137.797   268.000   268.000   0.000   10.720   0.000   0.000
0.00375   0.00325   293.000   1137.797   268.000   268.000   10.720   10.720   0.000   0.000
0.00625   0.00325   293.000   1137.797   268.000   268.000   10.720   10.720   0.000   0.000
0.00875   0.00325   293.000   1137.797   268.000   268.000   10.720   10.720   0.000   0.000
0.01125   0.00325   293.000   1137.797   268.000   268.000   10.720   10.720   0.000   0.000
0.01375   0.00325   293.000   1137.797   268.000   268.000   10.720   10.720   0.000   0.000
0.01625   0.00325   293.000   1137.797   268.000   268.000   10.720   10.720   0.000   0.000
0.01875   0.00325   293.000   1137.797   268.000   268.000   10.720   10.720   0.000   0.000
0.02125   0.00325   293.000   1137.797   268.000   268.000   10.720   10.720   0.000   0.000
0.02375   0.00325   293.001   1137.797   268.000   268.000   10.720   10.720   0.000   0.000
0.02625   0.00325   293.004   1137.797   268.000   268.000   10.720   10.720   0.000   0.000
0.02875   0.00325   293.011   1137.797   268.000   268.000   10.720   10.720   0.000   0.000
0.03125   0.00325   293.028   1137.797   268.000   268.000   10.720   10.720   0.000   0.000
0.03375   0.00325   293.068   1137.797   268.000   268.000   10.720   10.720   0.000   0.000
0.03625   0.00325   293.150   1137.797   268.000   268.000   10.720   10.720   0.000   0.000
0.03875   0.00325   293.313   1137.797   268.000   268.000   10.720   10.720   0.000   0.000
0.04125   0.00325   293.609   1137.797   268.000   268.000   10.720   10.720   0.000   0.000
0.04375   0.00325   294.112   1137.797   268.000   268.000   10.720   10.720   0.000   0.000
0.04625   0.00325   294.905   1137.797   268.000   268.000   10.720   10.720   0.000   0.000
0.04875   0.00325   296.077   1137.797   268.000   268.000   10.720   0.000   0.000   16.286
0.00125   0.00275   293.000   1137.797   268.000   268.000   0.000   10.720   0.000   0.000
0.00375   0.00275   293.000   1137.797   268.000   268.000   10.720   10.720   0.000   0.000
0.00625   0.00275   293.000   1137.797   268.000   268.000   10.720   10.720   0.000   0.000
0.00875   0.00275   293.000   1137.797   268.000   268.000   10.720   10.720   0.000   0.000
0.01125   0.00275   293.000   1137.797   268.000   268.000   10.720   10.720   0.000   0.000
0.01375   0.00275   293.000   1137.797   268.000   268.000   10.720   10.720   0.000   0.000
0.01625   0.00275   293.000   1137.797   268.000   268.000   10.720   10.720   0.000   0.000
0.01875   0.00275   293.000   1137.797   268.000   268.000   10.720   10.720   0.000   0.000
0.02125   0.00275   293.000   1137.797   268.000   268.000   10.720   10.720   0.000   0.000
0.02375   0.00275   293.001   1137.797   268.000   268.000   10.720   10.720   0.000   0.000
0.02625   0.00275   293.004   1137.797   268.000   268.000   10.720   10.720   0.000   0.000
0.02875   0.00275   293.011   1137.797   268.000   268.000   10.720   10.720   0.000   0.000
0.03125   0.00275   293.029   1137.797   268.000   268.000   10.720   10.720   0.000   0.000
0.03375   0.00275   293.068   1137.797   268.000   268.000   10.720   10.720   0.000   0.000
0.03625   0.00275   293.151   1137.797   268.000   268.000   10.720   10.720   0.000   0.000
0.03875   0.00275   293.314   1137.797   268.000   268.000   10.720   10.720   0.000   0.000
0.04125   0.00275   293.612   1137.797   268.000   268.000   10.720   10.720   0.000   0.000
0.04375   0.00275   294.116   1137.797   268.000   268.000   10.720   10.720   0.000   0.000
0.04625   0.00275   294.910   1137.797   268.000   268.000   10.720   10.720   0.000   0.000
0.04875   0.00275   296.073   1137.797   268.000   268.000   10.720   0.000   0.000   16.286
0.00125   0.00225   293.000   1137.797   268.000   268.000   0.000   10.720   0.000   0.000
0.00375   0.00225   293.000   1137.797   268.000   268.000   10.720   10.720   0.000   0.000
0.00625   0.00225   293.000   1137.797   268.000   268.000   10.720   10.720   0.000   0.000
0.00875   0.00225   293.000   1137.797   268.000   268.000   10.720   10.720   0.000   0.000
0.01125   0.00225   293.000   1137.797   268.000   268.000   10.720   10.720   0.000   0.000
0.01375   0.00225   293.000   1137.797   268.000   268.000   10.720   10.720   0.000   0.000
0.01625   0.00225   293.000   1137.797   268.000   268.000   10.720   10.720   0.000   0.000
0.01875   0.00225   293.000   1137.797   268.000   268.000   10.720   10.720   0.000   0.000
0.02125   0.00225   293.000   1137.797   268.000   268.000   10.720   10.720   0.000   0.000
0.02375   0.00225   293.001   1137.797   268.000   268.000   10.720   10.720   0.000   0.000
0.02625   0.00225   293.004   1137.797   268.000   268.000   10.720   10.720   0.000   0.000
0.02875   0.00225   293.011   1137.797   268.000   268.000   10.720   10.720   0.000   0.000
0.03125   0.00225   293.029   1137.797   268.000   268.000   10.720   10.720   0.000   0.000
0.03375   0.00225   293.068   1137.797   268.000   268.000   10.720   10.720   0.000   0.000
0.03625   0.00225   293.151   1137.797   268.000   268.000   10.720   10.720   0.000   0.000
0.03875   0.00225   293.315   1137.797   268.000   268.000   10.720   10.720   0.000   0.000
0.04125   0.00225   293.613   1137.797   268.000   268.000   10.720   10.720   0.000   0.000
0.04375   0.00225   294.119   1137.797   268.000   268.000   10.720   10.720   0.000   0.000
0.04625   0.00225   294.913   1137.797   268.000   268.000   10.720   10.720   0.000   0.000
0.04875   0.00225   296.070   1137.797   268.000   268.000   10.720   0.000   0.000   16.286
0.00125   0.00175   293.000   1137.797   268.000   268.000   0.000   10.720   0.000   0.000
0.00375   0.00175   293.000   1137.797   268.000   268.000   10.720   10.720   0.000   0.000
0.00625   0.00175   293.000   1137.797   268.000   268.000   10.720   10.720   0.000   0.000
0.00875   0.00175   293.000   1137.797   268.000   268.000   10.720   10.720   0.000   0.000
0.01125   0.00175   293.000   1137.797   268.000   268.000   10.720   10.720   0.000   0.000
0.01375   0.00175   293.000   1137.797   268.000   268.000   10.720   10.720   0.000   0.000
0.01625   0.00175   293.000   1137.797   268.000   268.000   10.720   10.720   0.000   0.000
0.01875   0.00175   293.000   1137.797   268.000   268.000   10.720   10.720   0.000   0.000
0.02125   0.00175   293.000   1137.797   268.000   268.000   10.720   10.720   0.000   0.000