VARIABLES = X, Y, T, ap,an,as,aw,ae,sp,su
ZONE I=20,J=20, F=POINT,t="11.600"
0.00125   0.00975   293.739   1137.797   0.000   268.000   0.000   10.720   0.000   -0.001
0.00375   0.00975   293.831   1137.797   0.000   268.000   10.720   10.720   0.000   -0.001
0.00625   0.00975   294.022   1137.797   0.000   268.000   10.720   10.720   0.000   -0.001
0.00875   0.00975   294.324   1137.797   0.000   268.000   10.720   10.720   0.000   -0.001
0.01125   0.00975   294.758   1137.797   0.000   268.000   10.720   10.720   0.000   -0.001
0.01375   0.00975   295.351   1137.797   0.000   268.000   10.720   10.720   0.000   -0.002
0.01625   0.00975   296.135   1137.797   0.000   268.000   10.720   10.720   0.000   -0.002
0.01875   0.00975   297.153   1137.797   0.000   268.000   10.720   10.720   0.000   -0.003
0.02125   0.00975   298.450   1137.797   0.000   268.000   10.720   10.720   0.000   -0.004
0.02375   0.00975   300.081   1137.797   0.000   268.000   10.720   10.720   0.000   -0.005
0.02625   0.00975   302.113   1137.797   0.000   268.000   10.720   10.720   0.000   -0.007
0.02875   0.00975   304.656   1137.797   0.000   268.000   10.720   10.720   0.000   -0.009
0.03125   0.00975   308.157   1137.797   0.000   268.000   10.720   10.720   0.000   81.270
0.03375   0.00975   310.865   1137.797   0.000   268.000   10.720   10.720   0.000   81.231
0.03625   0.00975   313.226   1137.797   0.000   268.000   10.720   10.720   0.000   81.197
0.03875   0.00975   315.350   1137.797   0.000   268.000   10.720   10.720   0.000   81.166
0.04125   0.00975   317.300   1137.797   0.000   268.000   10.720   10.720   0.000   81.136
0.04375   0.00975   319.125   1137.797   0.000   268.000   10.720   10.720   0.000   81.108
0.04625   0.00975   320.859   1137.797   0.000   268.000   10.720   10.720   0.000   81.081
0.04875   0.00975   322.507   1137.797   0.000   268.000   10.720   0.000   0.000   97.270
0.00125   0.00925   293.739   1137.797   268.000   268.000   0.000   10.720   0.000   0.000
0.00375   0.00925   293.831   1137.797   268.000   268.000   10.720   10.720   0.000   0.000
0.00625   0.00925   294.021   1137.797   268.000   268.000   10.720   10.720   0.000   0.000
0.00875   0.00925   294.324   1137.797   268.000   268.000   10.720   10.720   0.000   0.000
0.01125   0.00925   294.757   1137.797   268.000   268.000   10.720   10.720   0.000   0.000
0.01375   0.00925   295.350   1137.797   268.000   268.000   10.720   10.720   0.000   0.000
0.01625   0.00925   296.134   1137.797   268.000   268.000   10.720   10.720   0.000   0.000
0.01875   0.00925   297.151   1137.797   268.000   268.000   10.720   10.720   0.000   0.000
0.02125   0.00925   298.448   1137.797   268.000   268.000   10.720   10.720   0.000   0.000
0.02375   0.00925   300.079   1137.797   268.000   268.000   10.720   10.720   0.000   0.000
0.02625   0.00925   302.108   1137.797   268.000   268.000   10.720   10.720   0.000   0.000
0.02875   0.00925   304.636   1137.797   268.000   268.000   10.720   10.720   0.000   0.000
0.03125   0.00925   307.906   1137.797   268.000   268.000   10.720   10.720   0.000   0.000
0.03375   0.00925   310.598   1137.797   268.000   268.000   10.720   10.720   0.000   0.000
0.03625   0.00925   312.957   1137.797   268.000   268.000   10.720   10.720   0.000   0.000
0.03875   0.00925   315.080   1137.797   268.000   268.000   10.720   10.720   0.000   0.000
0.04125   0.00925   317.030   1137.797   268.000   268.000   10.720   10.720   0.000   0.000
0.04375   0.00925   318.855   1137.797   268.000   268.000   10.720   10.720   0.000   0.000
0.04625   0.00925   320.590   1137.797   268.000   268.000   10.720   10.720   0.000   0.000
0.04875   0.00925   322.240   1137.797   268.000   268.000   10.720   0.000   0.000   16.216
0.00125   0.00875   293.738   1137.797   268.000   268.000   0.000   10.720   0.000   0.000
0.00375   0.00875   293.830   1137.797   268.000   268.000   10.720   10.720   0.000   0.000
0.00625   0.00875   294.020   1137.797   268.000   268.000   10.720   10.720   0.000   0.000
0.00875   0.00875   294.323   1137.797   268.000   268.000   10.720   10.720   0.000   0.000
0.01125   0.00875   294.756   1137.797   268.000   268.000   10.720   10.720   0.000   0.000
0.01375   0.00875   295.348   1137.797   268.000   268.000   10.720   10.720   0.000   0.000
0.01625   0.00875   296.132   1137.797   268.000   268.000   10.720   10.720   0.000   0.000
0.01875   0.00875   297.149   1137.797   268.000   268.000   10.720   10.720   0.000   0.000
0.02125   0.00875   298.445   1137.797   268.000   268.000   10.720   10.720   0.000   0.000
0.02375   0.00875   300.074   1137.797   268.000   268.000   10.720   10.720   0.000   0.000
0.02625   0.00875   302.099   1137.797   268.000   268.000   10.720   10.720   0.000   0.000
0.02875   0.00875   304.604   1137.797   268.000   268.000   10.720   10.720   0.000   0.000
0.03125   0.00875   307.698   1137.797   268.000   268.000   10.720   10.720   0.000   0.000
0.03375   0.00875   310.367   1137.797   268.000   268.000   10.720   10.720   0.000   0.000
0.03625   0.00875   312.721   1137.797   268.000   268.000   10.720   10.720   0.000   0.000
0.03875   0.00875   314.843   1137.797   268.000   268.000   10.720   10.720   0.000   0.000
0.04125   0.00875   316.792   1137.797   268.000   268.000   10.720   10.720   0.000   0.000
0.04375   0.00875   318.617   1137.797   268.000   268.000   10.720   10.720   0.000   0.000
0.04625   0.00875   320.354   1137.797   268.000   268.000   10.720   10.720   0.000   0.000
0.04875   0.00875   322.009   1137.797   268.000   268.000   10.720   0.000   0.000   16.217
0.00125   0.00825   293.737   1137.797   268.000   268.000   0.000   10.720   0.000   0.000
0.00375   0.00825   293.829   1137.797   268.000   268.000   10.720   10.720   0.000   0.000
0.00625   0.00825   294.019   1137.797   268.000   268.000   10.720   10.720   0.000   0.000
0.00875   0.00825   294.321   1137.797   268.000   268.000   10.720   10.720   0.000   0.000
0.01125   0.00825   294.754   1137.797   268.000   268.000   10.720   10.720   0.000   0.000
0.01375   0.00825   295.346   1137.797   268.000   268.000   10.720   10.720   0.000   0.000
0.01625   0.00825   296.129   1137.797   268.000   268.000   10.720   10.720   0.000   0.000
0.01875   0.00825   297.145   1137.797   268.000   268.000   10.720   10.720   0.000   0.000
0.02125   0.00825   298.440   1137.797   268.000   268.000   10.720   10.720   0.000   0.000
0.02375   0.00825   300.067   1137.797   268.000   268.000   10.720   10.720   0.000   0.000
0.02625   0.00825   302.087   1137.797   268.000   268.000   10.720   10.720   0.000   0.000
0.02875   0.00825   304.566   1137.797   268.000   268.000   10.720   10.720   0.000   0.000
0.03125   0.00825   307.526   1137.797   268.000   268.000   10.720   10.720   0.000   0.000
0.03375   0.00825   310.170   1137.797   268.000   268.000   10.720   10.720   0.000   0.000
0.03625   0.00825   312.519   1137.797   268.000   268.000   10.720   10.720   0.000   0.000
0.03875   0.00825   314.639   1137.797   268.000   268.000   10.720   10.720   0.000   0.000
0.04125   0.00825   316.587   1137.797   268.000   268.000   10.720   10.720   0.000   0.000
0.04375   0.00825   318.412   1137.797   268.000   268.000   10.720   10.720   0.000   0.000
0.04625   0.00825   320.150   1137.797   268.000   268.000   10.720   10.720   0.000   0.000
0.04875   0.00825   321.813   1137.797   268.000   268.000   10.720   0.000   0.000   16.218
0.00125   0.00775   293.736   1137.797   268.000   268.000   0.000   10.720   0.000   0.000
0.00375   0.00775   293.828   1137.797   268.000   268.000   10.720   10.720   0.000   0.000
0.00625   0.00775   294.018   1137.797   268.000   268.000   10.720   10.720   0.000   0.000
0.00875   0.00775   294.319   1137.797   268.000   268.000   10.720   10.720   0.000   0.000
0.01125   0.00775   294.752   1137.797   268.000   268.000   10.720   10.720   0.000   0.000
0.01375   0.00775   295.343   1137.797   268.000   268.000   10.720   10.720   0.000   0.000
0.01625   0.00775   296.125   1137.797   268.000   268.000   10.720   10.720   0.000   0.000
0.01875   0.00775   297.140   1137.797   268.000   268.000   10.720   10.720   0.000   0.000
0.02125   0.00775   298.433   1137.797   268.000   268.000   10.720   10.720   0.000   0.000
0.02375   0.00775   300.058   1137.797   268.000   268.000   10.720   10.720   0.000   0.000
0.02625   0.00775   302.072   1137.797   268.000   268.000   10.720   10.720   0.000   0.000
0.02875   0.00775   304.526   1137.797   268.000   268.000   10.720   10.720   0.000   0.000
0.03125   0.00775   307.388   1137.797   268.000   268.000   10.720   10.720   0.000   0.000
0.03375   0.00775   310.007   1137.797   268.000   268.000   10.720   10.720   0.000   0.000
0.03625   0.00775   312.350   1137.797   268.000   268.000   10.720   10.720   0.000   0.000
0.03875   0.00775   314.467   1137.797   268.000   268.000   10.720   10.720   0.000   0.000
0.04125   0.00775   316.414   1137.797   268.000   268.000   10.720   10.720   0.000   0.000
0.04375   0.00775   318.238   1137.797   268.000   268.000   10.720   10.720   0.000   0.000
0.04625   0.00775   319.979   1137.797   268.000   268.000   10.720   10.720   0.000   0.000
0.04875   0.00775   321.654   1137.797   268.000   268.000   10.720   0.000   0.000   16.218
0.00125   0.00725   293.735   1137.797   268.000   268.000   0.000   10.720   0.000   0.000
0.00375   0.00725   293.826   1137.797   268.000   268.000   10.720   10.720   0.000   0.000
0.00625   0.00725   294.016   1137.797   268.000   268.000   10.720   10.720   0.000   0.000
0.00875   0.00725   294.317   1137.797   268.000   268.000   10.720   10.720   0.000   0.000
0.01125   0.00725   294.749   1137.797   268.000   268.000   10.720   10.720   0.000   0.000
0.01375   0.00725   295.339   1137.797   268.000   268.000   10.720   10.720   0.000   0.000
0.01625   0.00725   296.120   1137.797   268.000   268.000   10.720   10.720   0.000   0.000
0.01875   0.00725   297.133   1137.797   268.000   268.000   10.720   10.720   0.000   0.000
0.02125   0.00725   298.425   1137.797   268.000   268.000   10.720   10.720   0.000   0.000
0.02375   0.00725   300.047   1137.797   268.000   268.000   10.720   10.720   0.000   0.000
0.02625   0.00725   302.055   1137.797   268.000   268.000   10.720   10.720   0.000   0.000
0.02875   0.00725   304.489   1137.797   268.000   268.000   10.720   10.720   0.000   0.000
0.03125   0.00725   307.279   1137.797   268.000   268.000   10.720   10.720   0.000   0.000
0.03375   0.00725   309.877   1137.797   268.000   268.000   10.720   10.720   0.000   0.000
0.03625   0.00725   312.214   1137.797   268.000   268.000   10.720   10.720   0.000   0.000
0.03875   0.00725   314.329   1137.797   268.000   268.000   10.720   10.720   0.000   0.000
0.04125   0.00725   316.274   1137.797   268.000   268.000   10.720   10.720   0.000   0.000
0.04375   0.00725   318.097   1137.797   268.000   268.000   10.720   10.720   0.000   0.000
0.04625   0.00725   319.841   1137.797   268.000   268.000   10.720   10.720   0.000   0.000
0.04875   0.00725   321.531   1137.797   268.000   268.000   10.720   0.000   0.000   16.218
0.00125   0.00675   293.733   1137.797   268.000   268.000   0.000   10.720   0.000   0.000
0.00375   0.00675   293.824   1137.797   268.000   268.000   10.720   10.720   0.000   0.000
0.00625   0.00675   294.013   1137.797   268.000   268.000   10.720   10.720   0.000   0.000
0.00875   0.00675   294.314   1137.797   268.000   268.000   10.720   10.720   0.000   0.000
0.01125   0.00675   294.745   1137.797   268.000   268.000   10.720   10.720   0.000   0.000
0.01375   0.00675   295.334   1137.797   268.000   268.000   10.720   10.720   0.000   0.000
0.01625   0.00675   296.114   1137.797   268.000   268.000   10.720   10.720   0.000   0.000
0.01875   0.00675   297.125   1137.797   268.000   268.000   10.720   10.720   0.000   0.000
0.02125   0.00675   298.415   1137.797   268.000   268.000   10.720   10.720   0.000   0.000
0.02375   0.00675   300.034   1137.797   268.000   268.000   10.720   10.720   0.000   0.000
0.02625   0.00675   302.037   1137.797   268.000   268.000   10.720   10.720   0.000   0.000
0.02875   0.00675   304.454   1137.797   268.000   268.000   10.720   10.720   0.000   0.000
0.03125   0.00675   307.198   1137.797   268.000   268.000   10.720   10.720   0.000   0.000
0.03375   0.00675   309.780   1137.797   268.000   268.000   10.720   10.720   0.000   0.000
0.03625   0.00675   312.111   1137.797   268.000   268.000   10.720   10.720   0.000   0.000
0.03875   0.00675   314.223   1137.797   268.000   268.000   10.720   10.720   0.000   0.000
0.04125   0.00675   316.166   1137.797   268.000   268.000   10.720   10.720   0.000   0.000
0.04375   0.00675   317.988   1137.797   268.000   268.000   10.720   10.720   0.000   0.000
0.04625   0.00675   319.734   1137.797   268.000   268.000   10.720   10.720   0.000   0.000
0.04875   0.00675   321.445   1137.797   268.000   268.000   10.720   0.000   0.000   16.219
0.00125   0.00625   293.731   1137.797   268.000   2.085   0.000   10.720   0.000   0.000
0.00375   0.00625   293.822   1137.797   268.000   2.085   10.720   10.720   0.000   0.000
0.00625   0.00625   294.011   1137.797   268.000   2.085   10.720   10.720   0.000   0.000
0.00875   0.00625   294.311   1137.797   268.000   2.085   10.720   10.720   0.000   0.000
0.01125   0.00625   294.741   1137.797   268.000   2.085   10.720   10.720   0.000   0.000
0.01375   0.00625   295.329   1137.797   268.000   2.085   10.720   10.720   0.000   0.000
0.01625   0.00625   296.107   1137.797   268.000   2.085   10.720   10.720   0.000   0.000
0.01875   0.00625   297.117   1137.797   268.000   2.085   10.720   10.720   0.000   0.000
0.02125   0.00625   298.404   1137.797   268.000   2.085   10.720   10.720   0.000   0.000
0.02375   0.00625   300.020   1137.797   268.000   2.085   10.720   10.720   0.000   0.000
0.02625   0.00625   302.018   1137.797   268.000   2.085   10.720   10.720   0.000   0.000
0.02875   0.00625   304.425   1137.797   268.000   2.085   10.720   10.720   0.000   0.000
0.03125   0.00625   307.144   1137.797   268.000   2.085   10.720   10.720   0.000   0.000
0.03375   0.00625   309.715   1137.797   268.000   2.085   10.720   10.720   0.000   0.000
0.03625   0.00625   312.041   1137.797   268.000   2.085   10.720   10.720   0.000   0.000
0.03875   0.00625   314.150   1137.797   268.000   2.085   10.720   10.720   0.000   0.000
0.04125   0.00625   316.090   1137.797   268.000   2.085   10.720   10.720   0.000   0.000
0.04375   0.00625   317.911   1137.797   268.000   2.085   10.720   10.720   0.000   0.000
0.04625   0.00625   319.658   1137.797   268.000   2.085   10.720   10.720   0.000   0.000
0.04875   0.00625   321.397   1137.797   268.000   2.085   10.720   0.000   0.000   16.219
0.00125   0.00575   293.428   686.719   2.085   1.046   0.000   0.042   0.000   0.000
0.00375   0.00575   293.488   686.719   2.085   1.046   0.042   0.042   0.000   0.000
0.00625   0.00575   293.614   686.719   2.085   1.046   0.042   0.042   0.000   0.000
0.00875   0.00575   293.816   686.719   2.085   1.046   0.042   0.042   0.000   0.000
0.01125   0.00575   294.110   686.719   2.085   1.046   0.042   0.042   0.000   0.000
0.01375   0.00575   294.519   686.719   2.085   1.046   0.042   0.042   0.000   0.000
0.01625   0.00575   295.070   686.719   2.085   1.046   0.042   0.042   0.000   0.000
0.01875   0.00575   295.797   686.719   2.085   1.046   0.042   0.042   0.000   0.000
0.02125   0.00575   296.742   686.719   2.085   1.046   0.042   0.042   0.000   0.000
0.02375   0.00575   297.952   686.719   2.085   1.046   0.042   0.042   0.000   0.000
0.02625   0.00575   299.473   686.719   2.085   1.046   0.042   0.042   0.000   0.000
0.02875   0.00575   301.334   686.719   2.085   1.046   0.042   0.042   0.000   0.000
0.03125   0.00575   303.453   686.719   2.085   1.046   0.042   0.042   0.000   0.000
0.03375   0.00575   305.463   686.719   2.085   1.046   0.042   0.042   0.000   0.000
0.03625   0.00575   307.286   686.719   2.085   1.046   0.042   0.042   0.000   0.000
0.03875   0.00575   308.952   686.719   2.085   1.046   0.042   0.042   0.000   0.000
0.04125   0.00575   310.515   686.719   2.085   1.046   0.042   0.042   0.000   0.000
0.04375   0.00575   312.036   686.719   2.085   1.046   0.042   0.042   0.000   0.000
0.04625   0.00575   313.765   686.719   2.085   1.046   0.042   0.042   0.000   0.000
0.04875   0.00575   320.294   686.719   2.085   1.046   0.042   0.000   0.000   6.083
0.00125   0.00525   293.167   686.719   1.046   1.046   0.000   0.042   0.000   0.000
0.00375   0.00525   293.194   686.719   1.046   1.046   0.042   0.042   0.000   0.000
0.00625   0.00525   293.253   686.719   1.046   1.046   0.042   0.042   0.000   0.000
0.00875   0.00525   293.349   686.719   1.046   1.046   0.042   0.042   0.000   0.000
0.01125   0.00525   293.492   686.719   1.046   1.046   0.042   0.042   0.000   0.000
0.01375   0.00525   293.696   686.719   1.046   1.046   0.042   0.042   0.000   0.000
0.01625   0.00525   293.979   686.719   1.046   1.046   0.042   0.042   0.000   0.000
0.01875   0.00525   294.365   686.719   1.046   1.046   0.042   0.042   0.000   0.000
0.02125   0.00525   294.882   686.719   1.046   1.046   0.042   0.042   0.000   0.000
0.02375   0.00525   295.563   686.719   1.046   1.046   0.042   0.042   0.000   0.000
0.02625   0.00525   296.447   686.719   1.046   1.046   0.042   0.042   0.000   0.000
0.02875   0.00525   297.555   686.719   1.046   1.046   0.042   0.042   0.000   0.000
0.03125   0.00525   298.840   686.719   1.046   1.046   0.042   0.042   0.000   0.000
0.03375   0.00525   300.077   686.719   1.046   1.046   0.042   0.042   0.000   0.000
0.03625   0.00525   301.223   686.719   1.046   1.046   0.042   0.042   0.000   0.000
0.03875   0.00525   302.310   686.719   1.046   1.046   0.042   0.042   0.000   0.000
0.04125   0.00525   303.388   686.719   1.046   1.046   0.042   0.042   0.000   0.000
0.04375   0.00525   304.529   686.719   1.046   1.046   0.042   0.042   0.000   0.000
0.04625   0.00525   306.239   686.719   1.046   1.046   0.042   0.042   0.000   0.000
0.04875   0.00525   317.213   686.719   1.046   1.046   0.042   0.000   0.000   6.087
0.00125   0.00475   293.065   686.719   1.046   1.046   0.000   0.042   0.000   0.000
0.00375   0.00475   293.078   686.719   1.046   1.046   0.042   0.042   0.000   0.000
0.00625   0.00475   293.105   686.719   1.046   1.046   0.042   0.042   0.000   0.000
0.00875   0.00475   293.150   686.719   1.046   1.046   0.042   0.042   0.000   0.000
0.01125   0.00475   293.218   686.719   1.046   1.046   0.042   0.042   0.000   0.000
0.01375   0.00475   293.319   686.719   1.046   1.046   0.042   0.042   0.000   0.000
0.01625   0.00475   293.463   686.719   1.046   1.046   0.042   0.042   0.000   0.000
0.01875   0.00475   293.665   686.719   1.046   1.046   0.042   0.042   0.000   0.000
0.02125   0.00475   293.943   686.719   1.046   1.046   0.042   0.042   0.000   0.000
0.02375   0.00475   294.319   686.719   1.046   1.046   0.042   0.042   0.000   0.000
0.02625   0.00475   294.820   686.719   1.046   1.046   0.042   0.042   0.000   0.000
0.02875   0.00475   295.465   686.719   1.046   1.046   0.042   0.042   0.000   0.000
0.03125   0.00475   296.233   686.719   1.046   1.046   0.042   0.042   0.000   0.000
0.03375   0.00475   297.010   686.719   1.046   1.046   0.042   0.042   0.000   0.000
0.03625   0.00475   297.782   686.719   1.046   1.046   0.042   0.042   0.000   0.000
0.03875   0.00475   298.577   686.719   1.046   1.046   0.042   0.042   0.000   0.000
0.04125   0.00475   299.436   686.719   1.046   1.046   0.042   0.042   0.000   0.000
0.04375   0.00475   300.422   686.719   1.046   1.046   0.042   0.042   0.000   0.000
0.04625   0.00475   302.032   686.719   1.046   1.046   0.042   0.042   0.000   0.000
0.04875   0.00475   312.961   686.719   1.046   1.046   0.042   0.000   0.000   6.091
0.00125   0.00425   293.036   686.719   1.046   2.085   0.000   0.042   0.000   0.000
0.00375   0.00425   293.044   686.719   1.046   2.085   0.042   0.042   0.000   0.000
0.00625   0.00425   293.060   686.719   1.046   2.085   0.042   0.042   0.000   0.000
0.00875   0.00425   293.087   686.719   1.046   2.085   0.042   0.042   0.000   0.000
0.01125   0.00425   293.128   686.719   1.046   2.085   0.042   0.042   0.000   0.000
0.01375   0.00425   293.189   686.719   1.046   2.085   0.042   0.042   0.000   0.000
0.01625   0.00425   293.276   686.719   1.046   2.085   0.042   0.042   0.000   0.000
0.01875   0.00425   293.398   686.719   1.046   2.085   0.042   0.042   0.000   0.000
0.02125   0.00425   293.568   686.719   1.046   2.085   0.042   0.042   0.000   0.000
0.02375   0.00425   293.798   686.719   1.046   2.085   0.042   0.042   0.000   0.000
0.02625   0.00425   294.104   686.719   1.046   2.085   0.042   0.042   0.000   0.000
0.02875   0.00425   294.502   686.719   1.046   2.085   0.042   0.042   0.000   0.000
0.03125   0.00425   294.995   686.719   1.046   2.085   0.042   0.042   0.000   0.000
0.03375   0.00425   295.556   686.719   1.046   2.085   0.042   0.042   0.000   0.000
0.03625   0.00425   296.193   686.719   1.046   2.085   0.042   0.042   0.000   0.000
0.03875   0.00425   296.928   686.719   1.046   2.085   0.042   0.042   0.000   0.000
0.04125   0.00425   297.787   686.719   1.046   2.085   0.042   0.042   0.000   0.000
0.04375   0.00425   298.804   686.719   1.046   2.085   0.042   0.042   0.000   0.000
0.04625   0.00425   300.211   686.719   1.046   2.085   0.042   0.042   0.000   0.000
0.04875   0.00425   306.589   686.719   1.046   2.085   0.042   0.000   0.000   6.098
0.00125   0.00375   293.044   1137.797   2.085   268.000   0.000   10.720   0.000   0.000
0.00375   0.00375   293.052   1137.797   2.085   268.000   10.720   10.720   0.000   0.000
0.00625   0.00375   293.070   1137.797   2.085   268.000   10.720   10.720   0.000   0.000
0.00875   0.00375   293.098   1137.797   2.085   268.000   10.720   10.720   0.000   0.000
0.01125   0.00375   293.140   1137.797   2.085   268.000   10.720   10.720   0.000   0.000
0.01375   0.00375   293.201   1137.797   2.085   268.000   10.720   10.720   0.000   0.000
0.01625   0.00375   293.287   1137.797   2.085   268.000   10.720   10.720   0.000   0.000
0.01875   0.00375   293.403   1137.797   2.085   268.000   10.720   10.720   0.000   0.000
0.02125   0.00375   293.560   1137.797   2.085   268.000   10.720   10.720   0.000   0.000
0.02375   0.00375   293.766   1137.797   2.085   268.000   10.720   10.720   0.000   0.000
0.02625   0.00375   294.034   1137.797   2.085   268.000   10.720   10.720   0.000   0.000
0.02875   0.00375   294.377   1137.797   2.085   268.000   10.720   10.720   0.000   0.000
0.03125   0.00375   294.806   1137.797   2.085   268.000   10.720   10.720   0.000   0.000
0.03375   0.00375   295.336   1137.797   2.085   268.000   10.720   10.720   0.000   0.000
0.03625   0.00375   295.982   1137.797   2.085   268.000   10.720   10.720   0.000   0.000
0.03875   0.00375   296.761   1137.797   2.085   268.000   10.720   10.720   0.000   0.000
0.04125   0.00375   297.687   1137.797   2.085   268.000   10.720   10.720   0.000   0.000
0.04375   0.00375   298.779   1137.797   2.085   268.000   10.720   10.720   0.000   0.000
0.04625   0.00375   300.057   1137.797   2.085   268.000   10.720   10.720   0.000   0.000
0.04875   0.00375   301.569   1137.797   2.085   268.000   10.720   0.000   0.000   16.273
0.00125   0.00325   293.044   1137.797   268.000   268.000   0.000   10.720   0.000   0.000
0.00375   0.00325   293.052   1137.797   268.000   268.000   10.720   10.720   0.000   0.000
0.00625   0.00325   293.070   1137.797   268.000   268.000   10.720   10.720   0.000   0.000
0.00875   0.00325   293.098   1137.797   268.000   268.000   10.720   10.720   0.000   0.000
0.01125   0.00325   293.140   1137.797   268.000   268.000   10.720   10.720   0.000   0.000
0.01375   0.00325   293.202   1137.797   268.000   268.000   10.720   10.720   0.000   0.000
0.01625   0.00325   293.287   1137.797   268.000   268.000   10.720   10.720   0.000   0.000
0.01875   0.00325   293.403   1137.797   268.000   268.000   10.720   10.720   0.000   0.000
0.02125   0.00325   293.560   1137.797   268.000   268.000   10.720   10.720   0.000   0.000
0.02375   0.00325   293.766   1137.797   268.000   268.000   10.720   10.720   0.000   0.000
0.02625   0.00325   294.034   1137.797   268.000   268.000   10.720   10.720   0.000   0.000
0.02875   0.00325   294.376   1137.797   268.000   268.000   10.720   10.720   0.000   0.000
0.03125   0.00325   294.805   1137.797   268.000   268.000   10.720   10.720   0.000   0.000
0.03375   0.00325   295.335   1137.797   268.000   268.000   10.720   10.720   0.000   0.000
0.03625   0.00325   295.981   1137.797   268.000   268.000   10.720   10.720   0.000   0.000
0.03875   0.00325   296.760   1137.797   268.000   268.000   10.720   10.720   0.000   0.000
0.04125   0.00325   297.687   1137.797   268.000   268.000   10.720   10.720   0.000   0.000
0.04375   0.00325   298.779   1137.797   268.000   268.000   10.720   10.720   0.000   0.000
0.04625   0.00325   300.054   1137.797   268.000   268.000   10.720   10.720   0.000   0.000
0.04875   0.00325   301.537   1137.797   268.000   268.000   10.720   0.000   0.000   16.273
0.00125   0.00275   293.044   1137.797   268.000   268.000   0.000   10.720   0.000   0.000
0.00375   0.00275   293.052   1137.797   268.000   268.000   10.720   10.720   0.000   0.000
0.00625   0.00275   293.070   1137.797   268.000   268.000   10.720   10.720   0.000   0.000
0.00875   0.00275   293.098   1137.797   268.000   268.000   10.720   10.720   0.000   0.000
0.01125   0.00275   293.141   1137.797   268.000   268.000   10.720   10.720   0.000   0.000
0.01375   0.00275   293.202   1137.797   268.000   268.000   10.720   10.720   0.000   0.000
0.01625   0.00275   293.287   1137.797   268.000   268.000   10.720   10.720   0.000   0.000
0.01875   0.00275   293.403   1137.797   268.000   268.000   10.720   10.720   0.000   0.000
0.02125   0.00275   293.560   1137.797   268.000   268.000   10.720   10.720   0.000   0.000
0.02375   0.00275   293.766   1137.797   268.000   268.000   10.720   10.720   0.000   0.000
0.02625   0.00275   294.034   1137.797   268.000   268.000   10.720   10.720   0.000   0.000
0.02875   0.00275   294.375   1137.797   268.000   268.000   10.720   10.720   0.000   0.000
0.03125   0.00275   294.804   1137.797   268.000   268.000   10.720   10.720   0.000   0.000
0.03375   0.00275   295.333   1137.797   268.000   268.000   10.720   10.720   0.000   0.000
0.03625   0.00275   295.980   1137.797   268.000   268.000   10.720   10.720   0.000   0.000
0.03875   0.00275   296.759   1137.797   268.000   268.000   10.720   10.720   0.000   0.000
0.04125   0.00275   297.686   1137.797   268.000   268.000   10.720   10.720   0.000   0.000
0.04375   0.00275   298.778   1137.797   268.000   268.000   10.720   10.720   0.000   0.000
0.04625   0.00275   300.050   1137.797   268.000   268.000   10.720   10.720   0.000   0.000
0.04875   0.00275   301.512   1137.797   268.000   268.000   10.720   0.000   0.000   16.273
0.00125   0.00225   293.044   1137.797   268.000   268.000   0.000   10.720   0.000   0.000
0.00375   0.00225   293.052   1137.797   268.000   268.000   10.720   10.720   0.000   0.000
0.00625   0.00225   293.070   1137.797   268.000   268.000   10.720   10.720   0.000   0.000
0.00875   0.00225   293.098   1137.797   268.000   268.000   10.720   10.720   0.000   0.000
0.01125   0.00225   293.141   1137.797   268.000   268.000   10.720   10.720   0.000   0.000
0.01375   0.00225   293.202   1137.797   268.000   268.000   10.720   10.720   0.000   0.000
0.01625   0.00225   293.287   1137.797   268.000   268.000   10.720   10.720   0.000   0.000
0.01875   0.00225   293.403   1137.797   268.000   268.000   10.720   10.720   0.000   0.000
0.02125   0.00225   293.560   1137.797   268.000   268.000   10.720   10.720   0.000   0.000
0.02375   0.00225   293.766   1137.797   268.000   268.000   10.720   10.720   0.000   0.000
0.02625   0.00225   294.033   1137.797   268.000   268.000   10.720   10.720   0.000   0.000
0.02875   0.00225   294.374   1137.797   268.000   268.000   10.720   10.720   0.000   0.000
0.03125   0.00225   294.803   1137.797   268.000   268.000   10.720   10.720   0.000   0.000
0.03375   0.00225   295.333   1137.797   268.000   268.000   10.720   10.720   0.000   0.000
0.03625   0.00225   295.979   1137.797   268.000   268.000   10.720   10.720   0.000   0.000
0.03875   0.00225   296.758   1137.797   268.000   268.000   10.720   10.720   0.000   0.000
0.04125   0.00225   297.686   1137.797   268.000   268.000   10.720   10.720   0.000   0.000
0.04375   0.00225   298.777   1137.797   268.000   268.000   10.720   10.720   0.000   0.000
0.04625   0.00225   300.046   1137.797   268.000   268.000   10.720   10.720   0.000   0.000
0.04875   0.00225   301.492   1137.797   268.000   268.000   10.720   0.000   0.000   16.273
0.00125   0.00175   293.044   1137.797   268.000   268.000   0.000   10.720   0.000   0.000
0.00375   0.00175   293.052   1137.797   268.000   268.000   10.720   10.720   0.000   0.000
0.00625   0.00175   293.070   1137.797   268.000   268.000   10.720   10.720   0.000   0.000
0.00875   0.00175   293.098   1137.797   268.000   268.000   10.720   10.720   0.000   0.000
0.01125   0.00175   293.141   1137.797   268.000   268.000   10.720   10.720   0.000   0.000
0.01375   0.00175   293.202   1137.797   268.000   268.000   10.720   10.720   0.000   0.000
0.01625   0.00175   293.287   1137.797   268.000   268.000   10.720   10.720   0.000   0.000
0.01875   0.00175   293.403   1137.797   268.000   268.000   10.720   10.720   0.000   0.000
0.02125   0.00175   293.560   1137.797   268.000   268.000   10.720   10.720   0.000   0.000