VARIABLES = X, Y, T, ap,an,as,aw,ae,sp,su
ZONE I=20,J=20, F=POINT,t="23.468"
0.00125   0.00975   297.873   1137.797   0.000   268.000   0.000   10.720   0.000   -0.004
0.00375   0.00975   298.104   1137.797   0.000   268.000   10.720   10.720   0.000   -0.004
0.00625   0.00975   298.572   1137.797   0.000   268.000   10.720   10.720   0.000   -0.004
0.00875   0.00975   299.287   1137.797   0.000   268.000   10.720   10.720   0.000   -0.005
0.01125   0.00975   300.262   1137.797   0.000   268.000   10.720   10.720   0.000   -0.005
0.01375   0.00975   301.518   1137.797   0.000   268.000   10.720   10.720   0.000   -0.006
0.01625   0.00975   303.077   1137.797   0.000   268.000   10.720   10.720   0.000   -0.008
0.01875   0.00975   304.967   1137.797   0.000   268.000   10.720   10.720   0.000   -0.009
0.02125   0.00975   307.219   1137.797   0.000   268.000   10.720   10.720   0.000   -0.011
0.02375   0.00975   309.868   1137.797   0.000   268.000   10.720   10.720   0.000   -0.013
0.02625   0.00975   312.957   1137.797   0.000   268.000   10.720   10.720   0.000   -0.015
0.02875   0.00975   316.570   1137.797   0.000   268.000   10.720   10.720   0.000   -0.018
0.03125   0.00975   321.127   1137.797   0.000   268.000   10.720   10.720   0.000   81.077
0.03375   0.00975   324.849   1137.797   0.000   268.000   10.720   10.720   0.000   81.017
0.03625   0.00975   328.152   1137.797   0.000   268.000   10.720   10.720   0.000   80.963
0.03875   0.00975   331.117   1137.797   0.000   268.000   10.720   10.720   0.000   80.912
0.04125   0.00975   333.780   1137.797   0.000   268.000   10.720   10.720   0.000   80.866
0.04375   0.00975   336.166   1137.797   0.000   268.000   10.720   10.720   0.000   80.823
0.04625   0.00975   338.286   1137.797   0.000   268.000   10.720   10.720   0.000   80.785
0.04875   0.00975   340.129   1137.797   0.000   268.000   10.720   0.000   0.000   96.908
0.00125   0.00925   297.871   1137.797   268.000   268.000   0.000   10.720   0.000   0.000
0.00375   0.00925   298.103   1137.797   268.000   268.000   10.720   10.720   0.000   0.000
0.00625   0.00925   298.571   1137.797   268.000   268.000   10.720   10.720   0.000   0.000
0.00875   0.00925   299.285   1137.797   268.000   268.000   10.720   10.720   0.000   0.000
0.01125   0.00925   300.261   1137.797   268.000   268.000   10.720   10.720   0.000   0.000
0.01375   0.00925   301.516   1137.797   268.000   268.000   10.720   10.720   0.000   0.000
0.01625   0.00925   303.075   1137.797   268.000   268.000   10.720   10.720   0.000   0.000
0.01875   0.00925   304.965   1137.797   268.000   268.000   10.720   10.720   0.000   0.000
0.02125   0.00925   307.216   1137.797   268.000   268.000   10.720   10.720   0.000   0.000
0.02375   0.00925   309.864   1137.797   268.000   268.000   10.720   10.720   0.000   0.000
0.02625   0.00925   312.951   1137.797   268.000   268.000   10.720   10.720   0.000   0.000
0.02875   0.00925   316.549   1137.797   268.000   268.000   10.720   10.720   0.000   0.000
0.03125   0.00925   320.875   1137.797   268.000   268.000   10.720   10.720   0.000   0.000
0.03375   0.00925   324.581   1137.797   268.000   268.000   10.720   10.720   0.000   0.000
0.03625   0.00925   327.883   1137.797   268.000   268.000   10.720   10.720   0.000   0.000
0.03875   0.00925   330.847   1137.797   268.000   268.000   10.720   10.720   0.000   0.000
0.04125   0.00925   333.510   1137.797   268.000   268.000   10.720   10.720   0.000   0.000
0.04375   0.00925   335.896   1137.797   268.000   268.000   10.720   10.720   0.000   0.000
0.04625   0.00925   338.017   1137.797   268.000   268.000   10.720   10.720   0.000   0.000
0.04875   0.00925   339.863   1137.797   268.000   268.000   10.720   0.000   0.000   16.158
0.00125   0.00875   297.869   1137.797   268.000   268.000   0.000   10.720   0.000   0.000
0.00375   0.00875   298.100   1137.797   268.000   268.000   10.720   10.720   0.000   0.000
0.00625   0.00875   298.568   1137.797   268.000   268.000   10.720   10.720   0.000   0.000
0.00875   0.00875   299.282   1137.797   268.000   268.000   10.720   10.720   0.000   0.000
0.01125   0.00875   300.257   1137.797   268.000   268.000   10.720   10.720   0.000   0.000
0.01375   0.00875   301.512   1137.797   268.000   268.000   10.720   10.720   0.000   0.000
0.01625   0.00875   303.071   1137.797   268.000   268.000   10.720   10.720   0.000   0.000
0.01875   0.00875   304.960   1137.797   268.000   268.000   10.720   10.720   0.000   0.000
0.02125   0.00875   307.210   1137.797   268.000   268.000   10.720   10.720   0.000   0.000
0.02375   0.00875   309.857   1137.797   268.000   268.000   10.720   10.720   0.000   0.000
0.02625   0.00875   312.939   1137.797   268.000   268.000   10.720   10.720   0.000   0.000
0.02875   0.00875   316.515   1137.797   268.000   268.000   10.720   10.720   0.000   0.000
0.03125   0.00875   320.665   1137.797   268.000   268.000   10.720   10.720   0.000   0.000
0.03375   0.00875   324.348   1137.797   268.000   268.000   10.720   10.720   0.000   0.000
0.03625   0.00875   327.646   1137.797   268.000   268.000   10.720   10.720   0.000   0.000
0.03875   0.00875   330.609   1137.797   268.000   268.000   10.720   10.720   0.000   0.000
0.04125   0.00875   333.272   1137.797   268.000   268.000   10.720   10.720   0.000   0.000
0.04375   0.00875   335.657   1137.797   268.000   268.000   10.720   10.720   0.000   0.000
0.04625   0.00875   337.780   1137.797   268.000   268.000   10.720   10.720   0.000   0.000
0.04875   0.00875   339.632   1137.797   268.000   268.000   10.720   0.000   0.000   16.159
0.00125   0.00825   297.865   1137.797   268.000   268.000   0.000   10.720   0.000   0.000
0.00375   0.00825   298.097   1137.797   268.000   268.000   10.720   10.720   0.000   0.000
0.00625   0.00825   298.564   1137.797   268.000   268.000   10.720   10.720   0.000   0.000
0.00875   0.00825   299.278   1137.797   268.000   268.000   10.720   10.720   0.000   0.000
0.01125   0.00825   300.252   1137.797   268.000   268.000   10.720   10.720   0.000   0.000
0.01375   0.00825   301.507   1137.797   268.000   268.000   10.720   10.720   0.000   0.000
0.01625   0.00825   303.064   1137.797   268.000   268.000   10.720   10.720   0.000   0.000
0.01875   0.00825   304.952   1137.797   268.000   268.000   10.720   10.720   0.000   0.000
0.02125   0.00825   307.202   1137.797   268.000   268.000   10.720   10.720   0.000   0.000
0.02375   0.00825   309.847   1137.797   268.000   268.000   10.720   10.720   0.000   0.000
0.02625   0.00825   312.924   1137.797   268.000   268.000   10.720   10.720   0.000   0.000
0.02875   0.00825   316.473   1137.797   268.000   268.000   10.720   10.720   0.000   0.000
0.03125   0.00825   320.491   1137.797   268.000   268.000   10.720   10.720   0.000   0.000
0.03375   0.00825   324.149   1137.797   268.000   268.000   10.720   10.720   0.000   0.000
0.03625   0.00825   327.441   1137.797   268.000   268.000   10.720   10.720   0.000   0.000
0.03875   0.00825   330.403   1137.797   268.000   268.000   10.720   10.720   0.000   0.000
0.04125   0.00825   333.065   1137.797   268.000   268.000   10.720   10.720   0.000   0.000
0.04375   0.00825   335.450   1137.797   268.000   268.000   10.720   10.720   0.000   0.000
0.04625   0.00825   337.576   1137.797   268.000   268.000   10.720   10.720   0.000   0.000
0.04875   0.00825   339.436   1137.797   268.000   268.000   10.720   0.000   0.000   16.160
0.00125   0.00775   297.860   1137.797   268.000   268.000   0.000   10.720   0.000   0.000
0.00375   0.00775   298.091   1137.797   268.000   268.000   10.720   10.720   0.000   0.000
0.00625   0.00775   298.559   1137.797   268.000   268.000   10.720   10.720   0.000   0.000
0.00875   0.00775   299.272   1137.797   268.000   268.000   10.720   10.720   0.000   0.000
0.01125   0.00775   300.246   1137.797   268.000   268.000   10.720   10.720   0.000   0.000
0.01375   0.00775   301.499   1137.797   268.000   268.000   10.720   10.720   0.000   0.000
0.01625   0.00775   303.056   1137.797   268.000   268.000   10.720   10.720   0.000   0.000
0.01875   0.00775   304.943   1137.797   268.000   268.000   10.720   10.720   0.000   0.000
0.02125   0.00775   307.191   1137.797   268.000   268.000   10.720   10.720   0.000   0.000
0.02375   0.00775   309.833   1137.797   268.000   268.000   10.720   10.720   0.000   0.000
0.02625   0.00775   312.904   1137.797   268.000   268.000   10.720   10.720   0.000   0.000
0.02875   0.00775   316.429   1137.797   268.000   268.000   10.720   10.720   0.000   0.000
0.03125   0.00775   320.348   1137.797   268.000   268.000   10.720   10.720   0.000   0.000
0.03375   0.00775   323.982   1137.797   268.000   268.000   10.720   10.720   0.000   0.000
0.03625   0.00775   327.269   1137.797   268.000   268.000   10.720   10.720   0.000   0.000
0.03875   0.00775   330.229   1137.797   268.000   268.000   10.720   10.720   0.000   0.000
0.04125   0.00775   332.889   1137.797   268.000   268.000   10.720   10.720   0.000   0.000
0.04375   0.00775   335.275   1137.797   268.000   268.000   10.720   10.720   0.000   0.000
0.04625   0.00775   337.403   1137.797   268.000   268.000   10.720   10.720   0.000   0.000
0.04875   0.00775   339.275   1137.797   268.000   268.000   10.720   0.000   0.000   16.160
0.00125   0.00725   297.854   1137.797   268.000   268.000   0.000   10.720   0.000   0.000
0.00375   0.00725   298.085   1137.797   268.000   268.000   10.720   10.720   0.000   0.000
0.00625   0.00725   298.552   1137.797   268.000   268.000   10.720   10.720   0.000   0.000
0.00875   0.00725   299.264   1137.797   268.000   268.000   10.720   10.720   0.000   0.000
0.01125   0.00725   300.237   1137.797   268.000   268.000   10.720   10.720   0.000   0.000
0.01375   0.00725   301.490   1137.797   268.000   268.000   10.720   10.720   0.000   0.000
0.01625   0.00725   303.045   1137.797   268.000   268.000   10.720   10.720   0.000   0.000
0.01875   0.00725   304.930   1137.797   268.000   268.000   10.720   10.720   0.000   0.000
0.02125   0.00725   307.176   1137.797   268.000   268.000   10.720   10.720   0.000   0.000
0.02375   0.00725   309.816   1137.797   268.000   268.000   10.720   10.720   0.000   0.000
0.02625   0.00725   312.881   1137.797   268.000   268.000   10.720   10.720   0.000   0.000
0.02875   0.00725   316.386   1137.797   268.000   268.000   10.720   10.720   0.000   0.000
0.03125   0.00725   320.234   1137.797   268.000   268.000   10.720   10.720   0.000   0.000
0.03375   0.00725   323.848   1137.797   268.000   268.000   10.720   10.720   0.000   0.000
0.03625   0.00725   327.128   1137.797   268.000   268.000   10.720   10.720   0.000   0.000
0.03875   0.00725   330.086   1137.797   268.000   268.000   10.720   10.720   0.000   0.000
0.04125   0.00725   332.745   1137.797   268.000   268.000   10.720   10.720   0.000   0.000
0.04375   0.00725   335.130   1137.797   268.000   268.000   10.720   10.720   0.000   0.000
0.04625   0.00725   337.262   1137.797   268.000   268.000   10.720   10.720   0.000   0.000
0.04875   0.00725   339.151   1137.797   268.000   268.000   10.720   0.000   0.000   16.161
0.00125   0.00675   297.847   1137.797   268.000   268.000   0.000   10.720   0.000   0.000
0.00375   0.00675   298.077   1137.797   268.000   268.000   10.720   10.720   0.000   0.000
0.00625   0.00675   298.544   1137.797   268.000   268.000   10.720   10.720   0.000   0.000
0.00875   0.00675   299.256   1137.797   268.000   268.000   10.720   10.720   0.000   0.000
0.01125   0.00675   300.227   1137.797   268.000   268.000   10.720   10.720   0.000   0.000
0.01375   0.00675   301.479   1137.797   268.000   268.000   10.720   10.720   0.000   0.000
0.01625   0.00675   303.032   1137.797   268.000   268.000   10.720   10.720   0.000   0.000
0.01875   0.00675   304.916   1137.797   268.000   268.000   10.720   10.720   0.000   0.000
0.02125   0.00675   307.159   1137.797   268.000   268.000   10.720   10.720   0.000   0.000
0.02375   0.00675   309.796   1137.797   268.000   268.000   10.720   10.720   0.000   0.000
0.02625   0.00675   312.856   1137.797   268.000   268.000   10.720   10.720   0.000   0.000
0.02875   0.00675   316.345   1137.797   268.000   268.000   10.720   10.720   0.000   0.000
0.03125   0.00675   320.147   1137.797   268.000   268.000   10.720   10.720   0.000   0.000
0.03375   0.00675   323.745   1137.797   268.000   268.000   10.720   10.720   0.000   0.000
0.03625   0.00675   327.020   1137.797   268.000   268.000   10.720   10.720   0.000   0.000
0.03875   0.00675   329.975   1137.797   268.000   268.000   10.720   10.720   0.000   0.000
0.04125   0.00675   332.633   1137.797   268.000   268.000   10.720   10.720   0.000   0.000
0.04375   0.00675   335.017   1137.797   268.000   268.000   10.720   10.720   0.000   0.000
0.04625   0.00675   337.152   1137.797   268.000   268.000   10.720   10.720   0.000   0.000
0.04875   0.00675   339.064   1137.797   268.000   268.000   10.720   0.000   0.000   16.161
0.00125   0.00625   297.838   1137.797   268.000   2.085   0.000   10.720   0.000   0.000
0.00375   0.00625   298.069   1137.797   268.000   2.085   10.720   10.720   0.000   0.000
0.00625   0.00625   298.534   1137.797   268.000   2.085   10.720   10.720   0.000   0.000
0.00875   0.00625   299.245   1137.797   268.000   2.085   10.720   10.720   0.000   0.000
0.01125   0.00625   300.216   1137.797   268.000   2.085   10.720   10.720   0.000   0.000
0.01375   0.00625   301.465   1137.797   268.000   2.085   10.720   10.720   0.000   0.000
0.01625   0.00625   303.017   1137.797   268.000   2.085   10.720   10.720   0.000   0.000
0.01875   0.00625   304.899   1137.797   268.000   2.085   10.720   10.720   0.000   0.000
0.02125   0.00625   307.140   1137.797   268.000   2.085   10.720   10.720   0.000   0.000
0.02375   0.00625   309.773   1137.797   268.000   2.085   10.720   10.720   0.000   0.000
0.02625   0.00625   312.828   1137.797   268.000   2.085   10.720   10.720   0.000   0.000
0.02875   0.00625   316.307   1137.797   268.000   2.085   10.720   10.720   0.000   0.000
0.03125   0.00625   320.084   1137.797   268.000   2.085   10.720   10.720   0.000   0.000
0.03375   0.00625   323.672   1137.797   268.000   2.085   10.720   10.720   0.000   0.000
0.03625   0.00625   326.944   1137.797   268.000   2.085   10.720   10.720   0.000   0.000
0.03875   0.00625   329.896   1137.797   268.000   2.085   10.720   10.720   0.000   0.000
0.04125   0.00625   332.552   1137.797   268.000   2.085   10.720   10.720   0.000   0.000
0.04375   0.00625   334.935   1137.797   268.000   2.085   10.720   10.720   0.000   0.000
0.04625   0.00625   337.073   1137.797   268.000   2.085   10.720   10.720   0.000   0.000
0.04875   0.00625   339.014   1137.797   268.000   2.085   10.720   0.000   0.000   16.161
0.00125   0.00575   296.572   686.719   2.085   1.046   0.000   0.042   0.000   0.000
0.00375   0.00575   296.758   686.719   2.085   1.046   0.042   0.042   0.000   0.000
0.00625   0.00575   297.136   686.719   2.085   1.046   0.042   0.042   0.000   0.000
0.00875   0.00575   297.715   686.719   2.085   1.046   0.042   0.042   0.000   0.000
0.01125   0.00575   298.508   686.719   2.085   1.046   0.042   0.042   0.000   0.000
0.01375   0.00575   299.535   686.719   2.085   1.046   0.042   0.042   0.000   0.000
0.01625   0.00575   300.817   686.719   2.085   1.046   0.042   0.042   0.000   0.000
0.01875   0.00575   302.381   686.719   2.085   1.046   0.042   0.042   0.000   0.000
0.02125   0.00575   304.256   686.719   2.085   1.046   0.042   0.042   0.000   0.000
0.02375   0.00575   306.475   686.719   2.085   1.046   0.042   0.042   0.000   0.000
0.02625   0.00575   309.066   686.719   2.085   1.046   0.042   0.042   0.000   0.000
0.02875   0.00575   312.033   686.719   2.085   1.046   0.042   0.042   0.000   0.000
0.03125   0.00575   315.264   686.719   2.085   1.046   0.042   0.042   0.000   0.000
0.03375   0.00575   318.357   686.719   2.085   1.046   0.042   0.042   0.000   0.000
0.03625   0.00575   321.200   686.719   2.085   1.046   0.042   0.042   0.000   0.000
0.03875   0.00575   323.791   686.719   2.085   1.046   0.042   0.042   0.000   0.000
0.04125   0.00575   326.157   686.719   2.085   1.046   0.042   0.042   0.000   0.000
0.04375   0.00575   328.334   686.719   2.085   1.046   0.042   0.042   0.000   0.000
0.04625   0.00575   330.590   686.719   2.085   1.046   0.042   0.042   0.000   0.000
0.04875   0.00575   337.604   686.719   2.085   1.046   0.042   0.000   0.000   6.062
0.00125   0.00525   295.050   686.719   1.046   1.046   0.000   0.042   0.000   0.000
0.00375   0.00525   295.173   686.719   1.046   1.046   0.042   0.042   0.000   0.000
0.00625   0.00525   295.423   686.719   1.046   1.046   0.042   0.042   0.000   0.000
0.00875   0.00525   295.807   686.719   1.046   1.046   0.042   0.042   0.000   0.000
0.01125   0.00525   296.337   686.719   1.046   1.046   0.042   0.042   0.000   0.000
0.01375   0.00525   297.029   686.719   1.046   1.046   0.042   0.042   0.000   0.000
0.01625   0.00525   297.901   686.719   1.046   1.046   0.042   0.042   0.000   0.000
0.01875   0.00525   298.976   686.719   1.046   1.046   0.042   0.042   0.000   0.000
0.02125   0.00525   300.279   686.719   1.046   1.046   0.042   0.042   0.000   0.000
0.02375   0.00525   301.836   686.719   1.046   1.046   0.042   0.042   0.000   0.000
0.02625   0.00525   303.673   686.719   1.046   1.046   0.042   0.042   0.000   0.000
0.02875   0.00525   305.796   686.719   1.046   1.046   0.042   0.042   0.000   0.000
0.03125   0.00525   308.128   686.719   1.046   1.046   0.042   0.042   0.000   0.000
0.03375   0.00525   310.401   686.719   1.046   1.046   0.042   0.042   0.000   0.000
0.03625   0.00525   312.539   686.719   1.046   1.046   0.042   0.042   0.000   0.000
0.03875   0.00525   314.545   686.719   1.046   1.046   0.042   0.042   0.000   0.000
0.04125   0.00525   316.443   686.719   1.046   1.046   0.042   0.042   0.000   0.000
0.04375   0.00525   318.289   686.719   1.046   1.046   0.042   0.042   0.000   0.000
0.04625   0.00525   320.660   686.719   1.046   1.046   0.042   0.042   0.000   0.000
0.04875   0.00525   332.492   686.719   1.046   1.046   0.042   0.000   0.000   6.069
0.00125   0.00475   294.200   686.719   1.046   1.046   0.000   0.042   0.000   0.000
0.00375   0.00475   294.279   686.719   1.046   1.046   0.042   0.042   0.000   0.000
0.00625   0.00475   294.441   686.719   1.046   1.046   0.042   0.042   0.000   0.000
0.00875   0.00475   294.691   686.719   1.046   1.046   0.042   0.042   0.000   0.000
0.01125   0.00475   295.038   686.719   1.046   1.046   0.042   0.042   0.000   0.000
0.01375   0.00475   295.493   686.719   1.046   1.046   0.042   0.042   0.000   0.000
0.01625   0.00475   296.070   686.719   1.046   1.046   0.042   0.042   0.000   0.000
0.01875   0.00475   296.785   686.719   1.046   1.046   0.042   0.042   0.000   0.000
0.02125   0.00475   297.657   686.719   1.046   1.046   0.042   0.042   0.000   0.000
0.02375   0.00475   298.706   686.719   1.046   1.046   0.042   0.042   0.000   0.000
0.02625   0.00475   299.952   686.719   1.046   1.046   0.042   0.042   0.000   0.000
0.02875   0.00475   301.399   686.719   1.046   1.046   0.042   0.042   0.000   0.000
0.03125   0.00475   303.007   686.719   1.046   1.046   0.042   0.042   0.000   0.000
0.03375   0.00475   304.623   686.719   1.046   1.046   0.042   0.042   0.000   0.000
0.03625   0.00475   306.205   686.719   1.046   1.046   0.042   0.042   0.000   0.000
0.03875   0.00475   307.758   686.719   1.046   1.046   0.042   0.042   0.000   0.000
0.04125   0.00475   309.302   686.719   1.046   1.046   0.042   0.042   0.000   0.000
0.04375   0.00475   310.889   686.719   1.046   1.046   0.042   0.042   0.000   0.000
0.04625   0.00475   313.089   686.719   1.046   1.046   0.042   0.042   0.000   0.000
0.04875   0.00475   324.844   686.719   1.046   1.046   0.042   0.000   0.000   6.078
0.00125   0.00425   293.796   686.719   1.046   2.085   0.000   0.042   0.000   0.000
0.00375   0.00425   293.849   686.719   1.046   2.085   0.042   0.042   0.000   0.000
0.00625   0.00425   293.955   686.719   1.046   2.085   0.042   0.042   0.000   0.000
0.00875   0.00425   294.118   686.719   1.046   2.085   0.042   0.042   0.000   0.000
0.01125   0.00425   294.344   686.719   1.046   2.085   0.042   0.042   0.000   0.000
0.01375   0.00425   294.639   686.719   1.046   2.085   0.042   0.042   0.000   0.000
0.01625   0.00425   295.011   686.719   1.046   2.085   0.042   0.042   0.000   0.000
0.01875   0.00425   295.470   686.719   1.046   2.085   0.042   0.042   0.000   0.000
0.02125   0.00425   296.027   686.719   1.046   2.085   0.042   0.042   0.000   0.000
0.02375   0.00425   296.693   686.719   1.046   2.085   0.042   0.042   0.000   0.000
0.02625   0.00425   297.478   686.719   1.046   2.085   0.042   0.042   0.000   0.000
0.02875   0.00425   298.388   686.719   1.046   2.085   0.042   0.042   0.000   0.000
0.03125   0.00425   299.414   686.719   1.046   2.085   0.042   0.042   0.000   0.000
0.03375   0.00425   300.507   686.719   1.046   2.085   0.042   0.042   0.000   0.000
0.03625   0.00425   301.658   686.719   1.046   2.085   0.042   0.042   0.000   0.000
0.03875   0.00425   302.871   686.719   1.046   2.085   0.042   0.042   0.000   0.000
0.04125   0.00425   304.157   686.719   1.046   2.085   0.042   0.042   0.000   0.000
0.04375   0.00425   305.540   686.719   1.046   2.085   0.042   0.042   0.000   0.000
0.04625   0.00425   307.276   686.719   1.046   2.085   0.042   0.042   0.000   0.000
0.04875   0.00425   314.045   686.719   1.046   2.085   0.042   0.000   0.000   6.090
0.00125   0.00375   293.750   1137.797   2.085   268.000   0.000   10.720   0.000   0.000
0.00375   0.00375   293.794   1137.797   2.085   268.000   10.720   10.720   0.000   0.000
0.00625   0.00375   293.883   1137.797   2.085   268.000   10.720   10.720   0.000   0.000
0.00875   0.00375   294.019   1137.797   2.085   268.000   10.720   10.720   0.000   0.000
0.01125   0.00375   294.205   1137.797   2.085   268.000   10.720   10.720   0.000   0.000
0.01375   0.00375   294.446   1137.797   2.085   268.000   10.720   10.720   0.000   0.000
0.01625   0.00375   294.747   1137.797   2.085   268.000   10.720   10.720   0.000   0.000
0.01875   0.00375   295.113   1137.797   2.085   268.000   10.720   10.720   0.000   0.000
0.02125   0.00375   295.550   1137.797   2.085   268.000   10.720   10.720   0.000   0.000
0.02375   0.00375   296.064   1137.797   2.085   268.000   10.720   10.720   0.000   0.000
0.02625   0.00375   296.662   1137.797   2.085   268.000   10.720   10.720   0.000   0.000
0.02875   0.00375   297.349   1137.797   2.085   268.000   10.720   10.720   0.000   0.000
0.03125   0.00375   298.128   1137.797   2.085   268.000   10.720   10.720   0.000   0.000
0.03375   0.00375   299.003   1137.797   2.085   268.000   10.720   10.720   0.000   0.000
0.03625   0.00375   299.978   1137.797   2.085   268.000   10.720   10.720   0.000   0.000
0.03875   0.00375   301.057   1137.797   2.085   268.000   10.720   10.720   0.000   0.000
0.04125   0.00375   302.244   1137.797   2.085   268.000   10.720   10.720   0.000   0.000
0.04375   0.00375   303.547   1137.797   2.085   268.000   10.720   10.720   0.000   0.000
0.04625   0.00375   304.975   1137.797   2.085   268.000   10.720   10.720   0.000   0.000
0.04875   0.00375   306.569   1137.797   2.085   268.000   10.720   0.000   0.000   16.260
0.00125   0.00325   293.750   1137.797   268.000   268.000   0.000   10.720   0.000   0.000
0.00375   0.00325   293.794   1137.797   268.000   268.000   10.720   10.720   0.000   0.000
0.00625   0.00325   293.882   1137.797   268.000   268.000   10.720   10.720   0.000   0.000
0.00875   0.00325   294.018   1137.797   268.000   268.000   10.720   10.720   0.000   0.000
0.01125   0.00325   294.204   1137.797   268.000   268.000   10.720   10.720   0.000   0.000
0.01375   0.00325   294.445   1137.797   268.000   268.000   10.720   10.720   0.000   0.000
0.01625   0.00325   294.745   1137.797   268.000   268.000   10.720   10.720   0.000   0.000
0.01875   0.00325   295.110   1137.797   268.000   268.000   10.720   10.720   0.000   0.000
0.02125   0.00325   295.547   1137.797   268.000   268.000   10.720   10.720   0.000   0.000
0.02375   0.00325   296.060   1137.797   268.000   268.000   10.720   10.720   0.000   0.000
0.02625   0.00325   296.657   1137.797   268.000   268.000   10.720   10.720   0.000   0.000
0.02875   0.00325   297.342   1137.797   268.000   268.000   10.720   10.720   0.000   0.000
0.03125   0.00325   298.119   1137.797   268.000   268.000   10.720   10.720   0.000   0.000
0.03375   0.00325   298.993   1137.797   268.000   268.000   10.720   10.720   0.000   0.000
0.03625   0.00325   299.966   1137.797   268.000   268.000   10.720   10.720   0.000   0.000
0.03875   0.00325   301.044   1137.797   268.000   268.000   10.720   10.720   0.000   0.000
0.04125   0.00325   302.231   1137.797   268.000   268.000   10.720   10.720   0.000   0.000
0.04375   0.00325   303.533   1137.797   268.000   268.000   10.720   10.720   0.000   0.000
0.04625   0.00325   304.957   1137.797   268.000   268.000   10.720   10.720   0.000   0.000
0.04875   0.00325   306.521   1137.797   268.000   268.000   10.720   0.000   0.000   16.261
0.00125   0.00275   293.750   1137.797   268.000   268.000   0.000   10.720   0.000   0.000
0.00375   0.00275   293.793   1137.797   268.000   268.000   10.720   10.720   0.000   0.000
0.00625   0.00275   293.882   1137.797   268.000   268.000   10.720   10.720   0.000   0.000
0.00875   0.00275   294.017   1137.797   268.000   268.000   10.720   10.720   0.000   0.000
0.01125   0.00275   294.203   1137.797   268.000   268.000   10.720   10.720   0.000   0.000
0.01375   0.00275   294.444   1137.797   268.000   268.000   10.720   10.720   0.000   0.000
0.01625   0.00275   294.743   1137.797   268.000   268.000   10.720   10.720   0.000   0.000
0.01875   0.00275   295.108   1137.797   268.000   268.000   10.720   10.720   0.000   0.000
0.02125   0.00275   295.544   1137.797   268.000   268.000   10.720   10.720   0.000   0.000
0.02375   0.00275   296.056   1137.797   268.000   268.000   10.720   10.720   0.000   0.000
0.02625   0.00275   296.652   1137.797   268.000   268.000   10.720   10.720   0.000   0.000
0.02875   0.00275   297.336   1137.797   268.000   268.000   10.720   10.720   0.000   0.000
0.03125   0.00275   298.112   1137.797   268.000   268.000   10.720   10.720   0.000   0.000
0.03375   0.00275   298.984   1137.797   268.000   268.000   10.720   10.720   0.000   0.000
0.03625   0.00275   299.957   1137.797   268.000   268.000   10.720   10.720   0.000   0.000
0.03875   0.00275   301.034   1137.797   268.000   268.000   10.720   10.720   0.000   0.000
0.04125   0.00275   302.220   1137.797   268.000   268.000   10.720   10.720   0.000   0.000
0.04375   0.00275   303.520   1137.797   268.000   268.000   10.720   10.720   0.000   0.000
0.04625   0.00275   304.941   1137.797   268.000   268.000   10.720   10.720   0.000   0.000
0.04875   0.00275   306.481   1137.797   268.000   268.000   10.720   0.000   0.000   16.261
0.00125   0.00225   293.749   1137.797   268.000   268.000   0.000   10.720   0.000   0.000
0.00375   0.00225   293.793   1137.797   268.000   268.000   10.720   10.720   0.000   0.000
0.00625   0.00225   293.881   1137.797   268.000   268.000   10.720   10.720   0.000   0.000
0.00875   0.00225   294.017   1137.797   268.000   268.000   10.720   10.720   0.000   0.000
0.01125   0.00225   294.203   1137.797   268.000   268.000   10.720   10.720   0.000   0.000
0.01375   0.00225   294.443   1137.797   268.000   268.000   10.720   10.720   0.000   0.000
0.01625   0.00225   294.742   1137.797   268.000   268.000   10.720   10.720   0.000   0.000
0.01875   0.00225   295.106   1137.797   268.000   268.000   10.720   10.720   0.000   0.000
0.02125   0.00225   295.541   1137.797   268.000   268.000   10.720   10.720   0.000   0.000
0.02375   0.00225   296.053   1137.797   268.000   268.000   10.720   10.720   0.000   0.000
0.02625   0.00225   296.648   1137.797   268.000   268.000   10.720   10.720   0.000   0.000
0.02875   0.00225   297.331   1137.797   268.000   268.000   10.720   10.720   0.000   0.000
0.03125   0.00225   298.106   1137.797   268.000   268.000   10.720   10.720   0.000   0.000
0.03375   0.00225   298.977   1137.797   268.000   268.000   10.720   10.720   0.000   0.000
0.03625   0.00225   299.949   1137.797   268.000   268.000   10.720   10.720   0.000   0.000
0.03875   0.00225   301.025   1137.797   268.000   268.000   10.720   10.720   0.000   0.000
0.04125   0.00225   302.211   1137.797   268.000   268.000   10.720   10.720   0.000   0.000
0.04375   0.00225   303.510   1137.797   268.000   268.000   10.720   10.720   0.000   0.000
0.04625   0.00225   304.926   1137.797   268.000   268.000   10.720   10.720   0.000   0.000
0.04875   0.00225   306.450   1137.797   268.000   268.000   10.720   0.000   0.000   16.261
0.00125   0.00175   293.749   1137.797   268.000   268.000   0.000   10.720   0.000   0.000
0.00375   0.00175   293.793   1137.797   268.000   268.000   10.720   10.720   0.000   0.000
0.00625   0.00175   293.881   1137.797   268.000   268.000   10.720   10.720   0.000   0.000
0.00875   0.00175   294.016   1137.797   268.000   268.000   10.720   10.720   0.000   0.000
0.01125   0.00175   294.202   1137.797   268.000   268.000   10.720   10.720   0.000   0.000
0.01375   0.00175   294.442   1137.797   268.000   268.000   10.720   10.720   0.000   0.000
0.01625   0.00175   294.741   1137.797   268.000   268.000   10.720   10.720   0.000   0.000
0.01875   0.00175   295.105   1137.797   268.000   268.000   10.720   10.720   0.000   0.000
0.02125   0.00175   295.540   1137.797   268.000   268.000   10.720   10.720   0.000   0.000