VARIABLES = X, Y, T, ap,an,as,aw,ae,sp,su
ZONE I=20,J=20, F=POINT,t="23.924"
0.00125   0.00975   298.090   1137.797   0.000   268.000   0.000   10.720   0.000   -0.004
0.00375   0.00975   298.326   1137.797   0.000   268.000   10.720   10.720   0.000   -0.004
0.00625   0.00975   298.802   1137.797   0.000   268.000   10.720   10.720   0.000   -0.004
0.00875   0.00975   299.528   1137.797   0.000   268.000   10.720   10.720   0.000   -0.005
0.01125   0.00975   300.520   1137.797   0.000   268.000   10.720   10.720   0.000   -0.006
0.01375   0.00975   301.794   1137.797   0.000   268.000   10.720   10.720   0.000   -0.007
0.01625   0.00975   303.376   1137.797   0.000   268.000   10.720   10.720   0.000   -0.008
0.01875   0.00975   305.290   1137.797   0.000   268.000   10.720   10.720   0.000   -0.009
0.02125   0.00975   307.568   1137.797   0.000   268.000   10.720   10.720   0.000   -0.011
0.02375   0.00975   310.244   1137.797   0.000   268.000   10.720   10.720   0.000   -0.013
0.02625   0.00975   313.361   1137.797   0.000   268.000   10.720   10.720   0.000   -0.015
0.02875   0.00975   317.003   1137.797   0.000   268.000   10.720   10.720   0.000   -0.018
0.03125   0.00975   321.587   1137.797   0.000   268.000   10.720   10.720   0.000   81.070
0.03375   0.00975   325.335   1137.797   0.000   268.000   10.720   10.720   0.000   81.009
0.03625   0.00975   328.662   1137.797   0.000   268.000   10.720   10.720   0.000   80.954
0.03875   0.00975   331.648   1137.797   0.000   268.000   10.720   10.720   0.000   80.903
0.04125   0.00975   334.328   1137.797   0.000   268.000   10.720   10.720   0.000   80.856
0.04375   0.00975   336.727   1137.797   0.000   268.000   10.720   10.720   0.000   80.813
0.04625   0.00975   338.856   1137.797   0.000   268.000   10.720   10.720   0.000   80.774
0.04875   0.00975   340.704   1137.797   0.000   268.000   10.720   0.000   0.000   96.895
0.00125   0.00925   298.089   1137.797   268.000   268.000   0.000   10.720   0.000   0.000
0.00375   0.00925   298.324   1137.797   268.000   268.000   10.720   10.720   0.000   0.000
0.00625   0.00925   298.800   1137.797   268.000   268.000   10.720   10.720   0.000   0.000
0.00875   0.00925   299.527   1137.797   268.000   268.000   10.720   10.720   0.000   0.000
0.01125   0.00925   300.518   1137.797   268.000   268.000   10.720   10.720   0.000   0.000
0.01375   0.00925   301.793   1137.797   268.000   268.000   10.720   10.720   0.000   0.000
0.01625   0.00925   303.373   1137.797   268.000   268.000   10.720   10.720   0.000   0.000
0.01875   0.00925   305.288   1137.797   268.000   268.000   10.720   10.720   0.000   0.000
0.02125   0.00925   307.565   1137.797   268.000   268.000   10.720   10.720   0.000   0.000
0.02375   0.00925   310.241   1137.797   268.000   268.000   10.720   10.720   0.000   0.000
0.02625   0.00925   313.355   1137.797   268.000   268.000   10.720   10.720   0.000   0.000
0.02875   0.00925   316.982   1137.797   268.000   268.000   10.720   10.720   0.000   0.000
0.03125   0.00925   321.335   1137.797   268.000   268.000   10.720   10.720   0.000   0.000
0.03375   0.00925   325.067   1137.797   268.000   268.000   10.720   10.720   0.000   0.000
0.03625   0.00925   328.392   1137.797   268.000   268.000   10.720   10.720   0.000   0.000
0.03875   0.00925   331.378   1137.797   268.000   268.000   10.720   10.720   0.000   0.000
0.04125   0.00925   334.058   1137.797   268.000   268.000   10.720   10.720   0.000   0.000
0.04375   0.00925   336.457   1137.797   268.000   268.000   10.720   10.720   0.000   0.000
0.04625   0.00925   338.587   1137.797   268.000   268.000   10.720   10.720   0.000   0.000
0.04875   0.00925   340.438   1137.797   268.000   268.000   10.720   0.000   0.000   16.156
0.00125   0.00875   298.086   1137.797   268.000   268.000   0.000   10.720   0.000   0.000
0.00375   0.00875   298.322   1137.797   268.000   268.000   10.720   10.720   0.000   0.000
0.00625   0.00875   298.798   1137.797   268.000   268.000   10.720   10.720   0.000   0.000
0.00875   0.00875   299.524   1137.797   268.000   268.000   10.720   10.720   0.000   0.000
0.01125   0.00875   300.515   1137.797   268.000   268.000   10.720   10.720   0.000   0.000
0.01375   0.00875   301.789   1137.797   268.000   268.000   10.720   10.720   0.000   0.000
0.01625   0.00875   303.369   1137.797   268.000   268.000   10.720   10.720   0.000   0.000
0.01875   0.00875   305.283   1137.797   268.000   268.000   10.720   10.720   0.000   0.000
0.02125   0.00875   307.559   1137.797   268.000   268.000   10.720   10.720   0.000   0.000
0.02375   0.00875   310.234   1137.797   268.000   268.000   10.720   10.720   0.000   0.000
0.02625   0.00875   313.344   1137.797   268.000   268.000   10.720   10.720   0.000   0.000
0.02875   0.00875   316.947   1137.797   268.000   268.000   10.720   10.720   0.000   0.000
0.03125   0.00875   321.125   1137.797   268.000   268.000   10.720   10.720   0.000   0.000
0.03375   0.00875   324.834   1137.797   268.000   268.000   10.720   10.720   0.000   0.000
0.03625   0.00875   328.155   1137.797   268.000   268.000   10.720   10.720   0.000   0.000
0.03875   0.00875   331.139   1137.797   268.000   268.000   10.720   10.720   0.000   0.000
0.04125   0.00875   333.819   1137.797   268.000   268.000   10.720   10.720   0.000   0.000
0.04375   0.00875   336.218   1137.797   268.000   268.000   10.720   10.720   0.000   0.000
0.04625   0.00875   338.350   1137.797   268.000   268.000   10.720   10.720   0.000   0.000
0.04875   0.00875   340.207   1137.797   268.000   268.000   10.720   0.000   0.000   16.157
0.00125   0.00825   298.082   1137.797   268.000   268.000   0.000   10.720   0.000   0.000
0.00375   0.00825   298.318   1137.797   268.000   268.000   10.720   10.720   0.000   0.000
0.00625   0.00825   298.794   1137.797   268.000   268.000   10.720   10.720   0.000   0.000
0.00875   0.00825   299.519   1137.797   268.000   268.000   10.720   10.720   0.000   0.000
0.01125   0.00825   300.510   1137.797   268.000   268.000   10.720   10.720   0.000   0.000
0.01375   0.00825   301.783   1137.797   268.000   268.000   10.720   10.720   0.000   0.000
0.01625   0.00825   303.363   1137.797   268.000   268.000   10.720   10.720   0.000   0.000
0.01875   0.00825   305.275   1137.797   268.000   268.000   10.720   10.720   0.000   0.000
0.02125   0.00825   307.551   1137.797   268.000   268.000   10.720   10.720   0.000   0.000
0.02375   0.00825   310.223   1137.797   268.000   268.000   10.720   10.720   0.000   0.000
0.02625   0.00825   313.328   1137.797   268.000   268.000   10.720   10.720   0.000   0.000
0.02875   0.00825   316.906   1137.797   268.000   268.000   10.720   10.720   0.000   0.000
0.03125   0.00825   320.951   1137.797   268.000   268.000   10.720   10.720   0.000   0.000
0.03375   0.00825   324.635   1137.797   268.000   268.000   10.720   10.720   0.000   0.000
0.03625   0.00825   327.950   1137.797   268.000   268.000   10.720   10.720   0.000   0.000
0.03875   0.00825   330.933   1137.797   268.000   268.000   10.720   10.720   0.000   0.000
0.04125   0.00825   333.612   1137.797   268.000   268.000   10.720   10.720   0.000   0.000
0.04375   0.00825   336.011   1137.797   268.000   268.000   10.720   10.720   0.000   0.000
0.04625   0.00825   338.146   1137.797   268.000   268.000   10.720   10.720   0.000   0.000
0.04875   0.00825   340.011   1137.797   268.000   268.000   10.720   0.000   0.000   16.158
0.00125   0.00775   298.077   1137.797   268.000   268.000   0.000   10.720   0.000   0.000
0.00375   0.00775   298.312   1137.797   268.000   268.000   10.720   10.720   0.000   0.000
0.00625   0.00775   298.788   1137.797   268.000   268.000   10.720   10.720   0.000   0.000
0.00875   0.00775   299.513   1137.797   268.000   268.000   10.720   10.720   0.000   0.000
0.01125   0.00775   300.503   1137.797   268.000   268.000   10.720   10.720   0.000   0.000
0.01375   0.00775   301.775   1137.797   268.000   268.000   10.720   10.720   0.000   0.000
0.01625   0.00775   303.354   1137.797   268.000   268.000   10.720   10.720   0.000   0.000
0.01875   0.00775   305.265   1137.797   268.000   268.000   10.720   10.720   0.000   0.000
0.02125   0.00775   307.539   1137.797   268.000   268.000   10.720   10.720   0.000   0.000
0.02375   0.00775   310.209   1137.797   268.000   268.000   10.720   10.720   0.000   0.000
0.02625   0.00775   313.308   1137.797   268.000   268.000   10.720   10.720   0.000   0.000
0.02875   0.00775   316.862   1137.797   268.000   268.000   10.720   10.720   0.000   0.000
0.03125   0.00775   320.808   1137.797   268.000   268.000   10.720   10.720   0.000   0.000
0.03375   0.00775   324.468   1137.797   268.000   268.000   10.720   10.720   0.000   0.000
0.03625   0.00775   327.778   1137.797   268.000   268.000   10.720   10.720   0.000   0.000
0.03875   0.00775   330.759   1137.797   268.000   268.000   10.720   10.720   0.000   0.000
0.04125   0.00775   333.437   1137.797   268.000   268.000   10.720   10.720   0.000   0.000
0.04375   0.00775   335.836   1137.797   268.000   268.000   10.720   10.720   0.000   0.000
0.04625   0.00775   337.973   1137.797   268.000   268.000   10.720   10.720   0.000   0.000
0.04875   0.00775   339.850   1137.797   268.000   268.000   10.720   0.000   0.000   16.158
0.00125   0.00725   298.071   1137.797   268.000   268.000   0.000   10.720   0.000   0.000
0.00375   0.00725   298.306   1137.797   268.000   268.000   10.720   10.720   0.000   0.000
0.00625   0.00725   298.781   1137.797   268.000   268.000   10.720   10.720   0.000   0.000
0.00875   0.00725   299.506   1137.797   268.000   268.000   10.720   10.720   0.000   0.000
0.01125   0.00725   300.494   1137.797   268.000   268.000   10.720   10.720   0.000   0.000
0.01375   0.00725   301.766   1137.797   268.000   268.000   10.720   10.720   0.000   0.000
0.01625   0.00725   303.343   1137.797   268.000   268.000   10.720   10.720   0.000   0.000
0.01875   0.00725   305.253   1137.797   268.000   268.000   10.720   10.720   0.000   0.000
0.02125   0.00725   307.525   1137.797   268.000   268.000   10.720   10.720   0.000   0.000
0.02375   0.00725   310.192   1137.797   268.000   268.000   10.720   10.720   0.000   0.000
0.02625   0.00725   313.285   1137.797   268.000   268.000   10.720   10.720   0.000   0.000
0.02875   0.00725   316.818   1137.797   268.000   268.000   10.720   10.720   0.000   0.000
0.03125   0.00725   320.694   1137.797   268.000   268.000   10.720   10.720   0.000   0.000
0.03375   0.00725   324.333   1137.797   268.000   268.000   10.720   10.720   0.000   0.000
0.03625   0.00725   327.638   1137.797   268.000   268.000   10.720   10.720   0.000   0.000
0.03875   0.00725   330.616   1137.797   268.000   268.000   10.720   10.720   0.000   0.000
0.04125   0.00725   333.293   1137.797   268.000   268.000   10.720   10.720   0.000   0.000
0.04375   0.00725   335.691   1137.797   268.000   268.000   10.720   10.720   0.000   0.000
0.04625   0.00725   337.832   1137.797   268.000   268.000   10.720   10.720   0.000   0.000
0.04875   0.00725   339.726   1137.797   268.000   268.000   10.720   0.000   0.000   16.159
0.00125   0.00675   298.063   1137.797   268.000   268.000   0.000   10.720   0.000   0.000
0.00375   0.00675   298.298   1137.797   268.000   268.000   10.720   10.720   0.000   0.000
0.00625   0.00675   298.773   1137.797   268.000   268.000   10.720   10.720   0.000   0.000
0.00875   0.00675   299.496   1137.797   268.000   268.000   10.720   10.720   0.000   0.000
0.01125   0.00675   300.484   1137.797   268.000   268.000   10.720   10.720   0.000   0.000
0.01375   0.00675   301.754   1137.797   268.000   268.000   10.720   10.720   0.000   0.000
0.01625   0.00675   303.330   1137.797   268.000   268.000   10.720   10.720   0.000   0.000
0.01875   0.00675   305.238   1137.797   268.000   268.000   10.720   10.720   0.000   0.000
0.02125   0.00675   307.508   1137.797   268.000   268.000   10.720   10.720   0.000   0.000
0.02375   0.00675   310.172   1137.797   268.000   268.000   10.720   10.720   0.000   0.000
0.02625   0.00675   313.260   1137.797   268.000   268.000   10.720   10.720   0.000   0.000
0.02875   0.00675   316.777   1137.797   268.000   268.000   10.720   10.720   0.000   0.000
0.03125   0.00675   320.606   1137.797   268.000   268.000   10.720   10.720   0.000   0.000
0.03375   0.00675   324.230   1137.797   268.000   268.000   10.720   10.720   0.000   0.000
0.03625   0.00675   327.529   1137.797   268.000   268.000   10.720   10.720   0.000   0.000
0.03875   0.00675   330.505   1137.797   268.000   268.000   10.720   10.720   0.000   0.000
0.04125   0.00675   333.180   1137.797   268.000   268.000   10.720   10.720   0.000   0.000
0.04375   0.00675   335.578   1137.797   268.000   268.000   10.720   10.720   0.000   0.000
0.04625   0.00675   337.722   1137.797   268.000   268.000   10.720   10.720   0.000   0.000
0.04875   0.00675   339.638   1137.797   268.000   268.000   10.720   0.000   0.000   16.159
0.00125   0.00625   298.054   1137.797   268.000   2.085   0.000   10.720   0.000   0.000
0.00375   0.00625   298.289   1137.797   268.000   2.085   10.720   10.720   0.000   0.000
0.00625   0.00625   298.763   1137.797   268.000   2.085   10.720   10.720   0.000   0.000
0.00875   0.00625   299.486   1137.797   268.000   2.085   10.720   10.720   0.000   0.000
0.01125   0.00625   300.472   1137.797   268.000   2.085   10.720   10.720   0.000   0.000
0.01375   0.00625   301.741   1137.797   268.000   2.085   10.720   10.720   0.000   0.000
0.01625   0.00625   303.315   1137.797   268.000   2.085   10.720   10.720   0.000   0.000
0.01875   0.00625   305.220   1137.797   268.000   2.085   10.720   10.720   0.000   0.000
0.02125   0.00625   307.488   1137.797   268.000   2.085   10.720   10.720   0.000   0.000
0.02375   0.00625   310.149   1137.797   268.000   2.085   10.720   10.720   0.000   0.000
0.02625   0.00625   313.232   1137.797   268.000   2.085   10.720   10.720   0.000   0.000
0.02875   0.00625   316.739   1137.797   268.000   2.085   10.720   10.720   0.000   0.000
0.03125   0.00625   320.544   1137.797   268.000   2.085   10.720   10.720   0.000   0.000
0.03375   0.00625   324.157   1137.797   268.000   2.085   10.720   10.720   0.000   0.000
0.03625   0.00625   327.452   1137.797   268.000   2.085   10.720   10.720   0.000   0.000
0.03875   0.00625   330.426   1137.797   268.000   2.085   10.720   10.720   0.000   0.000
0.04125   0.00625   333.099   1137.797   268.000   2.085   10.720   10.720   0.000   0.000
0.04375   0.00625   335.496   1137.797   268.000   2.085   10.720   10.720   0.000   0.000
0.04625   0.00625   337.643   1137.797   268.000   2.085   10.720   10.720   0.000   0.000
0.04875   0.00625   339.588   1137.797   268.000   2.085   10.720   0.000   0.000   16.159
0.00125   0.00575   296.749   686.719   2.085   1.046   0.000   0.042   0.000   0.000
0.00375   0.00575   296.939   686.719   2.085   1.046   0.042   0.042   0.000   0.000
0.00625   0.00575   297.325   686.719   2.085   1.046   0.042   0.042   0.000   0.000
0.00875   0.00575   297.916   686.719   2.085   1.046   0.042   0.042   0.000   0.000
0.01125   0.00575   298.725   686.719   2.085   1.046   0.042   0.042   0.000   0.000
0.01375   0.00575   299.771   686.719   2.085   1.046   0.042   0.042   0.000   0.000
0.01625   0.00575   301.075   686.719   2.085   1.046   0.042   0.042   0.000   0.000
0.01875   0.00575   302.664   686.719   2.085   1.046   0.042   0.042   0.000   0.000
0.02125   0.00575   304.566   686.719   2.085   1.046   0.042   0.042   0.000   0.000
0.02375   0.00575   306.813   686.719   2.085   1.046   0.042   0.042   0.000   0.000
0.02625   0.00575   309.434   686.719   2.085   1.046   0.042   0.042   0.000   0.000
0.02875   0.00575   312.430   686.719   2.085   1.046   0.042   0.042   0.000   0.000
0.03125   0.00575   315.691   686.719   2.085   1.046   0.042   0.042   0.000   0.000
0.03375   0.00575   318.812   686.719   2.085   1.046   0.042   0.042   0.000   0.000
0.03625   0.00575   321.680   686.719   2.085   1.046   0.042   0.042   0.000   0.000
0.03875   0.00575   324.294   686.719   2.085   1.046   0.042   0.042   0.000   0.000
0.04125   0.00575   326.679   686.719   2.085   1.046   0.042   0.042   0.000   0.000
0.04375   0.00575   328.872   686.719   2.085   1.046   0.042   0.042   0.000   0.000
0.04625   0.00575   331.139   686.719   2.085   1.046   0.042   0.042   0.000   0.000
0.04875   0.00575   338.158   686.719   2.085   1.046   0.042   0.000   0.000   6.062
0.00125   0.00525   295.169   686.719   1.046   1.046   0.000   0.042   0.000   0.000
0.00375   0.00525   295.295   686.719   1.046   1.046   0.042   0.042   0.000   0.000
0.00625   0.00525   295.552   686.719   1.046   1.046   0.042   0.042   0.000   0.000
0.00875   0.00525   295.947   686.719   1.046   1.046   0.042   0.042   0.000   0.000
0.01125   0.00525   296.491   686.719   1.046   1.046   0.042   0.042   0.000   0.000
0.01375   0.00525   297.200   686.719   1.046   1.046   0.042   0.042   0.000   0.000
0.01625   0.00525   298.092   686.719   1.046   1.046   0.042   0.042   0.000   0.000
0.01875   0.00525   299.189   686.719   1.046   1.046   0.042   0.042   0.000   0.000
0.02125   0.00525   300.517   686.719   1.046   1.046   0.042   0.042   0.000   0.000
0.02375   0.00525   302.101   686.719   1.046   1.046   0.042   0.042   0.000   0.000
0.02625   0.00525   303.966   686.719   1.046   1.046   0.042   0.042   0.000   0.000
0.02875   0.00525   306.117   686.719   1.046   1.046   0.042   0.042   0.000   0.000
0.03125   0.00525   308.477   686.719   1.046   1.046   0.042   0.042   0.000   0.000
0.03375   0.00525   310.778   686.719   1.046   1.046   0.042   0.042   0.000   0.000
0.03625   0.00525   312.941   686.719   1.046   1.046   0.042   0.042   0.000   0.000
0.03875   0.00525   314.970   686.719   1.046   1.046   0.042   0.042   0.000   0.000
0.04125   0.00525   316.888   686.719   1.046   1.046   0.042   0.042   0.000   0.000
0.04375   0.00525   318.750   686.719   1.046   1.046   0.042   0.042   0.000   0.000
0.04625   0.00525   321.133   686.719   1.046   1.046   0.042   0.042   0.000   0.000
0.04875   0.00525   332.974   686.719   1.046   1.046   0.042   0.000   0.000   6.068
0.00125   0.00475   294.279   686.719   1.046   1.046   0.000   0.042   0.000   0.000
0.00375   0.00475   294.362   686.719   1.046   1.046   0.042   0.042   0.000   0.000
0.00625   0.00475   294.529   686.719   1.046   1.046   0.042   0.042   0.000   0.000
0.00875   0.00475   294.787   686.719   1.046   1.046   0.042   0.042   0.000   0.000
0.01125   0.00475   295.145   686.719   1.046   1.046   0.042   0.042   0.000   0.000
0.01375   0.00475   295.613   686.719   1.046   1.046   0.042   0.042   0.000   0.000
0.01625   0.00475   296.206   686.719   1.046   1.046   0.042   0.042   0.000   0.000
0.01875   0.00475   296.939   686.719   1.046   1.046   0.042   0.042   0.000   0.000
0.02125   0.00475   297.831   686.719   1.046   1.046   0.042   0.042   0.000   0.000
0.02375   0.00475   298.902   686.719   1.046   1.046   0.042   0.042   0.000   0.000
0.02625   0.00475   300.170   686.719   1.046   1.046   0.042   0.042   0.000   0.000
0.02875   0.00475   301.641   686.719   1.046   1.046   0.042   0.042   0.000   0.000
0.03125   0.00475   303.272   686.719   1.046   1.046   0.042   0.042   0.000   0.000
0.03375   0.00475   304.911   686.719   1.046   1.046   0.042   0.042   0.000   0.000
0.03625   0.00475   306.514   686.719   1.046   1.046   0.042   0.042   0.000   0.000
0.03875   0.00475   308.087   686.719   1.046   1.046   0.042   0.042   0.000   0.000
0.04125   0.00475   309.648   686.719   1.046   1.046   0.042   0.042   0.000   0.000
0.04375   0.00475   311.248   686.719   1.046   1.046   0.042   0.042   0.000   0.000
0.04625   0.00475   313.459   686.719   1.046   1.046   0.042   0.042   0.000   0.000
0.04875   0.00475   325.222   686.719   1.046   1.046   0.042   0.000   0.000   6.078
0.00125   0.00425   293.852   686.719   1.046   2.085   0.000   0.042   0.000   0.000
0.00375   0.00425   293.906   686.719   1.046   2.085   0.042   0.042   0.000   0.000
0.00625   0.00425   294.016   686.719   1.046   2.085   0.042   0.042   0.000   0.000
0.00875   0.00425   294.185   686.719   1.046   2.085   0.042   0.042   0.000   0.000
0.01125   0.00425   294.418   686.719   1.046   2.085   0.042   0.042   0.000   0.000
0.01375   0.00425   294.722   686.719   1.046   2.085   0.042   0.042   0.000   0.000
0.01625   0.00425   295.105   686.719   1.046   2.085   0.042   0.042   0.000   0.000
0.01875   0.00425   295.576   686.719   1.046   2.085   0.042   0.042   0.000   0.000
0.02125   0.00425   296.147   686.719   1.046   2.085   0.042   0.042   0.000   0.000
0.02375   0.00425   296.827   686.719   1.046   2.085   0.042   0.042   0.000   0.000
0.02625   0.00425   297.627   686.719   1.046   2.085   0.042   0.042   0.000   0.000
0.02875   0.00425   298.553   686.719   1.046   2.085   0.042   0.042   0.000   0.000
0.03125   0.00425   299.594   686.719   1.046   2.085   0.042   0.042   0.000   0.000
0.03375   0.00425   300.702   686.719   1.046   2.085   0.042   0.042   0.000   0.000
0.03625   0.00425   301.866   686.719   1.046   2.085   0.042   0.042   0.000   0.000
0.03875   0.00425   303.092   686.719   1.046   2.085   0.042   0.042   0.000   0.000
0.04125   0.00425   304.389   686.719   1.046   2.085   0.042   0.042   0.000   0.000
0.04375   0.00425   305.781   686.719   1.046   2.085   0.042   0.042   0.000   0.000
0.04625   0.00425   307.524   686.719   1.046   2.085   0.042   0.042   0.000   0.000
0.04875   0.00425   314.297   686.719   1.046   2.085   0.042   0.000   0.000   6.090
0.00125   0.00375   293.799   1137.797   2.085   268.000   0.000   10.720   0.000   0.000
0.00375   0.00375   293.844   1137.797   2.085   268.000   10.720   10.720   0.000   0.000
0.00625   0.00375   293.936   1137.797   2.085   268.000   10.720   10.720   0.000   0.000
0.00875   0.00375   294.076   1137.797   2.085   268.000   10.720   10.720   0.000   0.000
0.01125   0.00375   294.268   1137.797   2.085   268.000   10.720   10.720   0.000   0.000
0.01375   0.00375   294.516   1137.797   2.085   268.000   10.720   10.720   0.000   0.000
0.01625   0.00375   294.824   1137.797   2.085   268.000   10.720   10.720   0.000   0.000
0.01875   0.00375   295.199   1137.797   2.085   268.000   10.720   10.720   0.000   0.000
0.02125   0.00375   295.646   1137.797   2.085   268.000   10.720   10.720   0.000   0.000
0.02375   0.00375   296.171   1137.797   2.085   268.000   10.720   10.720   0.000   0.000
0.02625   0.00375   296.779   1137.797   2.085   268.000   10.720   10.720   0.000   0.000
0.02875   0.00375   297.476   1137.797   2.085   268.000   10.720   10.720   0.000   0.000
0.03125   0.00375   298.266   1137.797   2.085   268.000   10.720   10.720   0.000   0.000
0.03375   0.00375   299.151   1137.797   2.085   268.000   10.720   10.720   0.000   0.000
0.03625   0.00375   300.135   1137.797   2.085   268.000   10.720   10.720   0.000   0.000
0.03875   0.00375   301.222   1137.797   2.085   268.000   10.720   10.720   0.000   0.000
0.04125   0.00375   302.417   1137.797   2.085   268.000   10.720   10.720   0.000   0.000
0.04375   0.00375   303.725   1137.797   2.085   268.000   10.720   10.720   0.000   0.000
0.04625   0.00375   305.157   1137.797   2.085   268.000   10.720   10.720   0.000   0.000
0.04875   0.00375   306.753   1137.797   2.085   268.000   10.720   0.000   0.000   16.260
0.00125   0.00325   293.799   1137.797   268.000   268.000   0.000   10.720   0.000   0.000
0.00375   0.00325   293.844   1137.797   268.000   268.000   10.720   10.720   0.000   0.000
0.00625   0.00325   293.935   1137.797   268.000   268.000   10.720   10.720   0.000   0.000
0.00875   0.00325   294.075   1137.797   268.000   268.000   10.720   10.720   0.000   0.000
0.01125   0.00325   294.267   1137.797   268.000   268.000   10.720   10.720   0.000   0.000
0.01375   0.00325   294.514   1137.797   268.000   268.000   10.720   10.720   0.000   0.000
0.01625   0.00325   294.822   1137.797   268.000   268.000   10.720   10.720   0.000   0.000
0.01875   0.00325   295.196   1137.797   268.000   268.000   10.720   10.720   0.000   0.000
0.02125   0.00325   295.642   1137.797   268.000   268.000   10.720   10.720   0.000   0.000
0.02375   0.00325   296.166   1137.797   268.000   268.000   10.720   10.720   0.000   0.000
0.02625   0.00325   296.773   1137.797   268.000   268.000   10.720   10.720   0.000   0.000
0.02875   0.00325   297.469   1137.797   268.000   268.000   10.720   10.720   0.000   0.000
0.03125   0.00325   298.257   1137.797   268.000   268.000   10.720   10.720   0.000   0.000
0.03375   0.00325   299.141   1137.797   268.000   268.000   10.720   10.720   0.000   0.000
0.03625   0.00325   300.123   1137.797   268.000   268.000   10.720   10.720   0.000   0.000
0.03875   0.00325   301.210   1137.797   268.000   268.000   10.720   10.720   0.000   0.000
0.04125   0.00325   302.404   1137.797   268.000   268.000   10.720   10.720   0.000   0.000
0.04375   0.00325   303.710   1137.797   268.000   268.000   10.720   10.720   0.000   0.000
0.04625   0.00325   305.139   1137.797   268.000   268.000   10.720   10.720   0.000   0.000
0.04875   0.00325   306.704   1137.797   268.000   268.000   10.720   0.000   0.000   16.260
0.00125   0.00275   293.798   1137.797   268.000   268.000   0.000   10.720   0.000   0.000
0.00375   0.00275   293.844   1137.797   268.000   268.000   10.720   10.720   0.000   0.000
0.00625   0.00275   293.935   1137.797   268.000   268.000   10.720   10.720   0.000   0.000
0.00875   0.00275   294.075   1137.797   268.000   268.000   10.720   10.720   0.000   0.000
0.01125   0.00275   294.266   1137.797   268.000   268.000   10.720   10.720   0.000   0.000
0.01375   0.00275   294.513   1137.797   268.000   268.000   10.720   10.720   0.000   0.000
0.01625   0.00275   294.821   1137.797   268.000   268.000   10.720   10.720   0.000   0.000
0.01875   0.00275   295.194   1137.797   268.000   268.000   10.720   10.720   0.000   0.000
0.02125   0.00275   295.640   1137.797   268.000   268.000   10.720   10.720   0.000   0.000
0.02375   0.00275   296.162   1137.797   268.000   268.000   10.720   10.720   0.000   0.000
0.02625   0.00275   296.768   1137.797   268.000   268.000   10.720   10.720   0.000   0.000
0.02875   0.00275   297.463   1137.797   268.000   268.000   10.720   10.720   0.000   0.000
0.03125   0.00275   298.249   1137.797   268.000   268.000   10.720   10.720   0.000   0.000
0.03375   0.00275   299.132   1137.797   268.000   268.000   10.720   10.720   0.000   0.000
0.03625   0.00275   300.113   1137.797   268.000   268.000   10.720   10.720   0.000   0.000
0.03875   0.00275   301.199   1137.797   268.000   268.000   10.720   10.720   0.000   0.000
0.04125   0.00275   302.392   1137.797   268.000   268.000   10.720   10.720   0.000   0.000
0.04375   0.00275   303.698   1137.797   268.000   268.000   10.720   10.720   0.000   0.000
0.04625   0.00275   305.122   1137.797   268.000   268.000   10.720   10.720   0.000   0.000
0.04875   0.00275   306.664   1137.797   268.000   268.000   10.720   0.000   0.000   16.260
0.00125   0.00225   293.798   1137.797   268.000   268.000   0.000   10.720   0.000   0.000
0.00375   0.00225   293.843   1137.797   268.000   268.000   10.720   10.720   0.000   0.000
0.00625   0.00225   293.935   1137.797   268.000   268.000   10.720   10.720   0.000   0.000
0.00875   0.00225   294.074   1137.797   268.000   268.000   10.720   10.720   0.000   0.000
0.01125   0.00225   294.265   1137.797   268.000   268.000   10.720   10.720   0.000   0.000
0.01375   0.00225   294.512   1137.797   268.000   268.000   10.720   10.720   0.000   0.000
0.01625   0.00225   294.819   1137.797   268.000   268.000   10.720   10.720   0.000   0.000
0.01875   0.00225   295.192   1137.797   268.000   268.000   10.720   10.720   0.000   0.000
0.02125   0.00225   295.637   1137.797   268.000   268.000   10.720   10.720   0.000   0.000
0.02375   0.00225   296.159   1137.797   268.000   268.000   10.720   10.720   0.000   0.000
0.02625   0.00225   296.764   1137.797   268.000   268.000   10.720   10.720   0.000   0.000
0.02875   0.00225   297.457   1137.797   268.000   268.000   10.720   10.720   0.000   0.000
0.03125   0.00225   298.243   1137.797   268.000   268.000   10.720   10.720   0.000   0.000
0.03375   0.00225   299.124   1137.797   268.000   268.000   10.720   10.720   0.000   0.000
0.03625   0.00225   300.105   1137.797   268.000   268.000   10.720   10.720   0.000   0.000
0.03875   0.00225   301.190   1137.797   268.000   268.000   10.720   10.720   0.000   0.000
0.04125   0.00225   302.382   1137.797   268.000   268.000   10.720   10.720   0.000   0.000
0.04375   0.00225   303.687   1137.797   268.000   268.000   10.720   10.720   0.000   0.000
0.04625   0.00225   305.107   1137.797   268.000   268.000   10.720   10.720   0.000   0.000
0.04875   0.00225   306.632   1137.797   268.000   268.000   10.720   0.000   0.000   16.260
0.00125   0.00175   293.798   1137.797   268.000   268.000   0.000   10.720   0.000   0.000
0.00375   0.00175   293.843   1137.797   268.000   268.000   10.720   10.720   0.000   0.000
0.00625   0.00175   293.934   1137.797   268.000   268.000   10.720   10.720   0.000   0.000
0.00875   0.00175   294.074   1137.797   268.000   268.000   10.720   10.720   0.000   0.000
0.01125   0.00175   294.265   1137.797   268.000   268.000   10.720   10.720   0.000   0.000
0.01375   0.00175   294.511   1137.797   268.000   268.000   10.720   10.720   0.000   0.000
0.01625   0.00175   294.818   1137.797   268.000   268.000   10.720   10.720   0.000   0.000
0.01875   0.00175   295.191   1137.797   268.000   268.000   10.720   10.720   0.000   0.000
0.02125   0.00175   295.635   1137.797   268.000   268.000   10.720   10.720   0.000   0.000