VARIABLES = X, Y, T, ap,an,as,aw,ae,sp,su
ZONE I=20,J=20, F=POINT,t="27.048"
0.00125   0.00975   299.664   1137.797   0.000   268.000   0.000   10.720   0.000   -0.005
0.00375   0.00975   299.926   1137.797   0.000   268.000   10.720   10.720   0.000   -0.005
0.00625   0.00975   300.454   1137.797   0.000   268.000   10.720   10.720   0.000   -0.006
0.00875   0.00975   301.256   1137.797   0.000   268.000   10.720   10.720   0.000   -0.006
0.01125   0.00975   302.346   1137.797   0.000   268.000   10.720   10.720   0.000   -0.007
0.01375   0.00975   303.740   1137.797   0.000   268.000   10.720   10.720   0.000   -0.008
0.01625   0.00975   305.458   1137.797   0.000   268.000   10.720   10.720   0.000   -0.009
0.01875   0.00975   307.525   1137.797   0.000   268.000   10.720   10.720   0.000   -0.011
0.02125   0.00975   309.967   1137.797   0.000   268.000   10.720   10.720   0.000   -0.013
0.02375   0.00975   312.814   1137.797   0.000   268.000   10.720   10.720   0.000   -0.015
0.02625   0.00975   316.106   1137.797   0.000   268.000   10.720   10.720   0.000   -0.017
0.02875   0.00975   319.922   1137.797   0.000   268.000   10.720   10.720   0.000   -0.020
0.03125   0.00975   324.673   1137.797   0.000   268.000   10.720   10.720   0.000   81.020
0.03375   0.00975   328.580   1137.797   0.000   268.000   10.720   10.720   0.000   80.955
0.03625   0.00975   332.052   1137.797   0.000   268.000   10.720   10.720   0.000   80.896
0.03875   0.00975   335.166   1137.797   0.000   268.000   10.720   10.720   0.000   80.841
0.04125   0.00975   337.953   1137.797   0.000   268.000   10.720   10.720   0.000   80.791
0.04375   0.00975   340.435   1137.797   0.000   268.000   10.720   10.720   0.000   80.745
0.04625   0.00975   342.620   1137.797   0.000   268.000   10.720   10.720   0.000   80.704
0.04875   0.00975   344.496   1137.797   0.000   268.000   10.720   0.000   0.000   96.809
0.00125   0.00925   299.663   1137.797   268.000   268.000   0.000   10.720   0.000   0.000
0.00375   0.00925   299.924   1137.797   268.000   268.000   10.720   10.720   0.000   0.000
0.00625   0.00925   300.452   1137.797   268.000   268.000   10.720   10.720   0.000   0.000
0.00875   0.00925   301.254   1137.797   268.000   268.000   10.720   10.720   0.000   0.000
0.01125   0.00925   302.344   1137.797   268.000   268.000   10.720   10.720   0.000   0.000
0.01375   0.00925   303.738   1137.797   268.000   268.000   10.720   10.720   0.000   0.000
0.01625   0.00925   305.456   1137.797   268.000   268.000   10.720   10.720   0.000   0.000
0.01875   0.00925   307.522   1137.797   268.000   268.000   10.720   10.720   0.000   0.000
0.02125   0.00925   309.964   1137.797   268.000   268.000   10.720   10.720   0.000   0.000
0.02375   0.00925   312.811   1137.797   268.000   268.000   10.720   10.720   0.000   0.000
0.02625   0.00925   316.100   1137.797   268.000   268.000   10.720   10.720   0.000   0.000
0.02875   0.00925   319.900   1137.797   268.000   268.000   10.720   10.720   0.000   0.000
0.03125   0.00925   324.421   1137.797   268.000   268.000   10.720   10.720   0.000   0.000
0.03375   0.00925   328.313   1137.797   268.000   268.000   10.720   10.720   0.000   0.000
0.03625   0.00925   331.783   1137.797   268.000   268.000   10.720   10.720   0.000   0.000
0.03875   0.00925   334.896   1137.797   268.000   268.000   10.720   10.720   0.000   0.000
0.04125   0.00925   337.683   1137.797   268.000   268.000   10.720   10.720   0.000   0.000
0.04375   0.00925   340.165   1137.797   268.000   268.000   10.720   10.720   0.000   0.000
0.04625   0.00925   342.352   1137.797   268.000   268.000   10.720   10.720   0.000   0.000
0.04875   0.00925   344.230   1137.797   268.000   268.000   10.720   0.000   0.000   16.142
0.00125   0.00875   299.660   1137.797   268.000   268.000   0.000   10.720   0.000   0.000
0.00375   0.00875   299.921   1137.797   268.000   268.000   10.720   10.720   0.000   0.000
0.00625   0.00875   300.449   1137.797   268.000   268.000   10.720   10.720   0.000   0.000
0.00875   0.00875   301.251   1137.797   268.000   268.000   10.720   10.720   0.000   0.000
0.01125   0.00875   302.340   1137.797   268.000   268.000   10.720   10.720   0.000   0.000
0.01375   0.00875   303.734   1137.797   268.000   268.000   10.720   10.720   0.000   0.000
0.01625   0.00875   305.451   1137.797   268.000   268.000   10.720   10.720   0.000   0.000
0.01875   0.00875   307.517   1137.797   268.000   268.000   10.720   10.720   0.000   0.000
0.02125   0.00875   309.958   1137.797   268.000   268.000   10.720   10.720   0.000   0.000
0.02375   0.00875   312.803   1137.797   268.000   268.000   10.720   10.720   0.000   0.000
0.02625   0.00875   316.088   1137.797   268.000   268.000   10.720   10.720   0.000   0.000
0.02875   0.00875   319.865   1137.797   268.000   268.000   10.720   10.720   0.000   0.000
0.03125   0.00875   324.211   1137.797   268.000   268.000   10.720   10.720   0.000   0.000
0.03375   0.00875   328.079   1137.797   268.000   268.000   10.720   10.720   0.000   0.000
0.03625   0.00875   331.546   1137.797   268.000   268.000   10.720   10.720   0.000   0.000
0.03875   0.00875   334.658   1137.797   268.000   268.000   10.720   10.720   0.000   0.000
0.04125   0.00875   337.445   1137.797   268.000   268.000   10.720   10.720   0.000   0.000
0.04375   0.00875   339.926   1137.797   268.000   268.000   10.720   10.720   0.000   0.000
0.04625   0.00875   342.115   1137.797   268.000   268.000   10.720   10.720   0.000   0.000
0.04875   0.00875   343.999   1137.797   268.000   268.000   10.720   0.000   0.000   16.143
0.00125   0.00825   299.655   1137.797   268.000   268.000   0.000   10.720   0.000   0.000
0.00375   0.00825   299.916   1137.797   268.000   268.000   10.720   10.720   0.000   0.000
0.00625   0.00825   300.444   1137.797   268.000   268.000   10.720   10.720   0.000   0.000
0.00875   0.00825   301.245   1137.797   268.000   268.000   10.720   10.720   0.000   0.000
0.01125   0.00825   302.334   1137.797   268.000   268.000   10.720   10.720   0.000   0.000
0.01375   0.00825   303.727   1137.797   268.000   268.000   10.720   10.720   0.000   0.000
0.01625   0.00825   305.444   1137.797   268.000   268.000   10.720   10.720   0.000   0.000
0.01875   0.00825   307.509   1137.797   268.000   268.000   10.720   10.720   0.000   0.000
0.02125   0.00825   309.948   1137.797   268.000   268.000   10.720   10.720   0.000   0.000
0.02375   0.00825   312.792   1137.797   268.000   268.000   10.720   10.720   0.000   0.000
0.02625   0.00825   316.072   1137.797   268.000   268.000   10.720   10.720   0.000   0.000
0.02875   0.00825   319.823   1137.797   268.000   268.000   10.720   10.720   0.000   0.000
0.03125   0.00825   324.036   1137.797   268.000   268.000   10.720   10.720   0.000   0.000
0.03375   0.00825   327.879   1137.797   268.000   268.000   10.720   10.720   0.000   0.000
0.03625   0.00825   331.340   1137.797   268.000   268.000   10.720   10.720   0.000   0.000
0.03875   0.00825   334.451   1137.797   268.000   268.000   10.720   10.720   0.000   0.000
0.04125   0.00825   337.237   1137.797   268.000   268.000   10.720   10.720   0.000   0.000
0.04375   0.00825   339.719   1137.797   268.000   268.000   10.720   10.720   0.000   0.000
0.04625   0.00825   341.910   1137.797   268.000   268.000   10.720   10.720   0.000   0.000
0.04875   0.00825   343.803   1137.797   268.000   268.000   10.720   0.000   0.000   16.144
0.00125   0.00775   299.649   1137.797   268.000   268.000   0.000   10.720   0.000   0.000
0.00375   0.00775   299.910   1137.797   268.000   268.000   10.720   10.720   0.000   0.000
0.00625   0.00775   300.437   1137.797   268.000   268.000   10.720   10.720   0.000   0.000
0.00875   0.00775   301.238   1137.797   268.000   268.000   10.720   10.720   0.000   0.000
0.01125   0.00775   302.326   1137.797   268.000   268.000   10.720   10.720   0.000   0.000
0.01375   0.00775   303.718   1137.797   268.000   268.000   10.720   10.720   0.000   0.000
0.01625   0.00775   305.434   1137.797   268.000   268.000   10.720   10.720   0.000   0.000
0.01875   0.00775   307.498   1137.797   268.000   268.000   10.720   10.720   0.000   0.000
0.02125   0.00775   309.936   1137.797   268.000   268.000   10.720   10.720   0.000   0.000
0.02375   0.00775   312.777   1137.797   268.000   268.000   10.720   10.720   0.000   0.000
0.02625   0.00775   316.051   1137.797   268.000   268.000   10.720   10.720   0.000   0.000
0.02875   0.00775   319.778   1137.797   268.000   268.000   10.720   10.720   0.000   0.000
0.03125   0.00775   323.893   1137.797   268.000   268.000   10.720   10.720   0.000   0.000
0.03375   0.00775   327.712   1137.797   268.000   268.000   10.720   10.720   0.000   0.000
0.03625   0.00775   331.167   1137.797   268.000   268.000   10.720   10.720   0.000   0.000
0.03875   0.00775   334.276   1137.797   268.000   268.000   10.720   10.720   0.000   0.000
0.04125   0.00775   337.061   1137.797   268.000   268.000   10.720   10.720   0.000   0.000
0.04375   0.00775   339.543   1137.797   268.000   268.000   10.720   10.720   0.000   0.000
0.04625   0.00775   341.737   1137.797   268.000   268.000   10.720   10.720   0.000   0.000
0.04875   0.00775   343.642   1137.797   268.000   268.000   10.720   0.000   0.000   16.144
0.00125   0.00725   299.641   1137.797   268.000   268.000   0.000   10.720   0.000   0.000
0.00375   0.00725   299.902   1137.797   268.000   268.000   10.720   10.720   0.000   0.000
0.00625   0.00725   300.429   1137.797   268.000   268.000   10.720   10.720   0.000   0.000
0.00875   0.00725   301.229   1137.797   268.000   268.000   10.720   10.720   0.000   0.000
0.01125   0.00725   302.317   1137.797   268.000   268.000   10.720   10.720   0.000   0.000
0.01375   0.00725   303.707   1137.797   268.000   268.000   10.720   10.720   0.000   0.000
0.01625   0.00725   305.422   1137.797   268.000   268.000   10.720   10.720   0.000   0.000
0.01875   0.00725   307.484   1137.797   268.000   268.000   10.720   10.720   0.000   0.000
0.02125   0.00725   309.920   1137.797   268.000   268.000   10.720   10.720   0.000   0.000
0.02375   0.00725   312.759   1137.797   268.000   268.000   10.720   10.720   0.000   0.000
0.02625   0.00725   316.027   1137.797   268.000   268.000   10.720   10.720   0.000   0.000
0.02875   0.00725   319.733   1137.797   268.000   268.000   10.720   10.720   0.000   0.000
0.03125   0.00725   323.777   1137.797   268.000   268.000   10.720   10.720   0.000   0.000
0.03375   0.00725   327.576   1137.797   268.000   268.000   10.720   10.720   0.000   0.000
0.03625   0.00725   331.026   1137.797   268.000   268.000   10.720   10.720   0.000   0.000
0.03875   0.00725   334.133   1137.797   268.000   268.000   10.720   10.720   0.000   0.000
0.04125   0.00725   336.916   1137.797   268.000   268.000   10.720   10.720   0.000   0.000
0.04375   0.00725   339.398   1137.797   268.000   268.000   10.720   10.720   0.000   0.000
0.04625   0.00725   341.595   1137.797   268.000   268.000   10.720   10.720   0.000   0.000
0.04875   0.00725   343.517   1137.797   268.000   268.000   10.720   0.000   0.000   16.145
0.00125   0.00675   299.632   1137.797   268.000   268.000   0.000   10.720   0.000   0.000
0.00375   0.00675   299.893   1137.797   268.000   268.000   10.720   10.720   0.000   0.000
0.00625   0.00675   300.419   1137.797   268.000   268.000   10.720   10.720   0.000   0.000
0.00875   0.00675   301.219   1137.797   268.000   268.000   10.720   10.720   0.000   0.000
0.01125   0.00675   302.305   1137.797   268.000   268.000   10.720   10.720   0.000   0.000
0.01375   0.00675   303.694   1137.797   268.000   268.000   10.720   10.720   0.000   0.000
0.01625   0.00675   305.407   1137.797   268.000   268.000   10.720   10.720   0.000   0.000
0.01875   0.00675   307.468   1137.797   268.000   268.000   10.720   10.720   0.000   0.000
0.02125   0.00675   309.901   1137.797   268.000   268.000   10.720   10.720   0.000   0.000
0.02375   0.00675   312.737   1137.797   268.000   268.000   10.720   10.720   0.000   0.000
0.02625   0.00675   316.000   1137.797   268.000   268.000   10.720   10.720   0.000   0.000
0.02875   0.00675   319.691   1137.797   268.000   268.000   10.720   10.720   0.000   0.000
0.03125   0.00675   323.689   1137.797   268.000   268.000   10.720   10.720   0.000   0.000
0.03375   0.00675   327.472   1137.797   268.000   268.000   10.720   10.720   0.000   0.000
0.03625   0.00675   330.917   1137.797   268.000   268.000   10.720   10.720   0.000   0.000
0.03875   0.00675   334.021   1137.797   268.000   268.000   10.720   10.720   0.000   0.000
0.04125   0.00675   336.803   1137.797   268.000   268.000   10.720   10.720   0.000   0.000
0.04375   0.00675   339.284   1137.797   268.000   268.000   10.720   10.720   0.000   0.000
0.04625   0.00675   341.485   1137.797   268.000   268.000   10.720   10.720   0.000   0.000
0.04875   0.00675   343.429   1137.797   268.000   268.000   10.720   0.000   0.000   16.145
0.00125   0.00625   299.621   1137.797   268.000   2.085   0.000   10.720   0.000   0.000
0.00375   0.00625   299.882   1137.797   268.000   2.085   10.720   10.720   0.000   0.000
0.00625   0.00625   300.407   1137.797   268.000   2.085   10.720   10.720   0.000   0.000
0.00875   0.00625   301.206   1137.797   268.000   2.085   10.720   10.720   0.000   0.000
0.01125   0.00625   302.291   1137.797   268.000   2.085   10.720   10.720   0.000   0.000
0.01375   0.00625   303.679   1137.797   268.000   2.085   10.720   10.720   0.000   0.000
0.01625   0.00625   305.390   1137.797   268.000   2.085   10.720   10.720   0.000   0.000
0.01875   0.00625   307.448   1137.797   268.000   2.085   10.720   10.720   0.000   0.000
0.02125   0.00625   309.880   1137.797   268.000   2.085   10.720   10.720   0.000   0.000
0.02375   0.00625   312.712   1137.797   268.000   2.085   10.720   10.720   0.000   0.000
0.02625   0.00625   315.971   1137.797   268.000   2.085   10.720   10.720   0.000   0.000
0.02875   0.00625   319.652   1137.797   268.000   2.085   10.720   10.720   0.000   0.000
0.03125   0.00625   323.625   1137.797   268.000   2.085   10.720   10.720   0.000   0.000
0.03375   0.00625   327.398   1137.797   268.000   2.085   10.720   10.720   0.000   0.000
0.03625   0.00625   330.839   1137.797   268.000   2.085   10.720   10.720   0.000   0.000
0.03875   0.00625   333.940   1137.797   268.000   2.085   10.720   10.720   0.000   0.000
0.04125   0.00625   336.721   1137.797   268.000   2.085   10.720   10.720   0.000   0.000
0.04375   0.00625   339.201   1137.797   268.000   2.085   10.720   10.720   0.000   0.000
0.04625   0.00625   341.404   1137.797   268.000   2.085   10.720   10.720   0.000   0.000
0.04875   0.00625   343.378   1137.797   268.000   2.085   10.720   0.000   0.000   16.145
0.00125   0.00575   298.051   686.719   2.085   1.046   0.000   0.042   0.000   0.000
0.00375   0.00575   298.267   686.719   2.085   1.046   0.042   0.042   0.000   0.000
0.00625   0.00575   298.705   686.719   2.085   1.046   0.042   0.042   0.000   0.000
0.00875   0.00575   299.372   686.719   2.085   1.046   0.042   0.042   0.000   0.000
0.01125   0.00575   300.280   686.719   2.085   1.046   0.042   0.042   0.000   0.000
0.01375   0.00575   301.446   686.719   2.085   1.046   0.042   0.042   0.000   0.000
0.01625   0.00575   302.890   686.719   2.085   1.046   0.042   0.042   0.000   0.000
0.01875   0.00575   304.635   686.719   2.085   1.046   0.042   0.042   0.000   0.000
0.02125   0.00575   306.707   686.719   2.085   1.046   0.042   0.042   0.000   0.000
0.02375   0.00575   309.132   686.719   2.085   1.046   0.042   0.042   0.000   0.000
0.02625   0.00575   311.936   686.719   2.085   1.046   0.042   0.042   0.000   0.000
0.02875   0.00575   315.116   686.719   2.085   1.046   0.042   0.042   0.000   0.000
0.03125   0.00575   318.557   686.719   2.085   1.046   0.042   0.042   0.000   0.000
0.03375   0.00575   321.850   686.719   2.085   1.046   0.042   0.042   0.000   0.000
0.03625   0.00575   324.876   686.719   2.085   1.046   0.042   0.042   0.000   0.000
0.03875   0.00575   327.630   686.719   2.085   1.046   0.042   0.042   0.000   0.000
0.04125   0.00575   330.133   686.719   2.085   1.046   0.042   0.042   0.000   0.000
0.04375   0.00575   332.419   686.719   2.085   1.046   0.042   0.042   0.000   0.000
0.04625   0.00575   334.753   686.719   2.085   1.046   0.042   0.042   0.000   0.000
0.04875   0.00575   341.808   686.719   2.085   1.046   0.042   0.000   0.000   6.057
0.00125   0.00525   296.069   686.719   1.046   1.046   0.000   0.042   0.000   0.000
0.00375   0.00525   296.218   686.719   1.046   1.046   0.042   0.042   0.000   0.000
0.00625   0.00525   296.521   686.719   1.046   1.046   0.042   0.042   0.000   0.000
0.00875   0.00525   296.984   686.719   1.046   1.046   0.042   0.042   0.000   0.000
0.01125   0.00525   297.617   686.719   1.046   1.046   0.042   0.042   0.000   0.000
0.01375   0.00525   298.435   686.719   1.046   1.046   0.042   0.042   0.000   0.000
0.01625   0.00525   299.455   686.719   1.046   1.046   0.042   0.042   0.000   0.000
0.01875   0.00525   300.696   686.719   1.046   1.046   0.042   0.042   0.000   0.000
0.02125   0.00525   302.181   686.719   1.046   1.046   0.042   0.042   0.000   0.000
0.02375   0.00525   303.933   686.719   1.046   1.046   0.042   0.042   0.000   0.000
0.02625   0.00525   305.973   686.719   1.046   1.046   0.042   0.042   0.000   0.000
0.02875   0.00525   308.302   686.719   1.046   1.046   0.042   0.042   0.000   0.000
0.03125   0.00525   310.838   686.719   1.046   1.046   0.042   0.042   0.000   0.000
0.03375   0.00525   313.307   686.719   1.046   1.046   0.042   0.042   0.000   0.000
0.03625   0.00525   315.628   686.719   1.046   1.046   0.042   0.042   0.000   0.000
0.03875   0.00525   317.798   686.719   1.046   1.046   0.042   0.042   0.000   0.000
0.04125   0.00525   319.836   686.719   1.046   1.046   0.042   0.042   0.000   0.000
0.04375   0.00525   321.796   686.719   1.046   1.046   0.042   0.042   0.000   0.000
0.04625   0.00525   324.252   686.719   1.046   1.046   0.042   0.042   0.000   0.000
0.04875   0.00525   336.137   686.719   1.046   1.046   0.042   0.000   0.000   6.064
0.00125   0.00475   294.895   686.719   1.046   1.046   0.000   0.042   0.000   0.000
0.00375   0.00475   294.996   686.719   1.046   1.046   0.042   0.042   0.000   0.000
0.00625   0.00475   295.200   686.719   1.046   1.046   0.042   0.042   0.000   0.000
0.00875   0.00475   295.513   686.719   1.046   1.046   0.042   0.042   0.000   0.000
0.01125   0.00475   295.942   686.719   1.046   1.046   0.042   0.042   0.000   0.000
0.01375   0.00475   296.498   686.719   1.046   1.046   0.042   0.042   0.000   0.000
0.01625   0.00475   297.194   686.719   1.046   1.046   0.042   0.042   0.000   0.000
0.01875   0.00475   298.044   686.719   1.046   1.046   0.042   0.042   0.000   0.000
0.02125   0.00475   299.064   686.719   1.046   1.046   0.042   0.042   0.000   0.000
0.02375   0.00475   300.272   686.719   1.046   1.046   0.042   0.042   0.000   0.000
0.02625   0.00475   301.684   686.719   1.046   1.046   0.042   0.042   0.000   0.000
0.02875   0.00475   303.303   686.719   1.046   1.046   0.042   0.042   0.000   0.000
0.03125   0.00475   305.080   686.719   1.046   1.046   0.042   0.042   0.000   0.000
0.03375   0.00475   306.861   686.719   1.046   1.046   0.042   0.042   0.000   0.000
0.03625   0.00475   308.596   686.719   1.046   1.046   0.042   0.042   0.000   0.000
0.03875   0.00475   310.288   686.719   1.046   1.046   0.042   0.042   0.000   0.000
0.04125   0.00475   311.952   686.719   1.046   1.046   0.042   0.042   0.000   0.000
0.04375   0.00475   313.635   686.719   1.046   1.046   0.042   0.042   0.000   0.000
0.04625   0.00475   315.909   686.719   1.046   1.046   0.042   0.042   0.000   0.000
0.04875   0.00475   327.712   686.719   1.046   1.046   0.042   0.000   0.000   6.075
0.00125   0.00425   294.285   686.719   1.046   2.085   0.000   0.042   0.000   0.000
0.00375   0.00425   294.352   686.719   1.046   2.085   0.042   0.042   0.000   0.000
0.00625   0.00425   294.487   686.719   1.046   2.085   0.042   0.042   0.000   0.000
0.00875   0.00425   294.693   686.719   1.046   2.085   0.042   0.042   0.000   0.000
0.01125   0.00425   294.976   686.719   1.046   2.085   0.042   0.042   0.000   0.000
0.01375   0.00425   295.340   686.719   1.046   2.085   0.042   0.042   0.000   0.000
0.01625   0.00425   295.793   686.719   1.046   2.085   0.042   0.042   0.000   0.000
0.01875   0.00425   296.344   686.719   1.046   2.085   0.042   0.042   0.000   0.000
0.02125   0.00425   297.001   686.719   1.046   2.085   0.042   0.042   0.000   0.000
0.02375   0.00425   297.774   686.719   1.046   2.085   0.042   0.042   0.000   0.000
0.02625   0.00425   298.671   686.719   1.046   2.085   0.042   0.042   0.000   0.000
0.02875   0.00425   299.696   686.719   1.046   2.085   0.042   0.042   0.000   0.000
0.03125   0.00425   300.834   686.719   1.046   2.085   0.042   0.042   0.000   0.000
0.03375   0.00425   302.036   686.719   1.046   2.085   0.042   0.042   0.000   0.000
0.03625   0.00425   303.288   686.719   1.046   2.085   0.042   0.042   0.000   0.000
0.03875   0.00425   304.593   686.719   1.046   2.085   0.042   0.042   0.000   0.000
0.04125   0.00425   305.957   686.719   1.046   2.085   0.042   0.042   0.000   0.000
0.04375   0.00425   307.402   686.719   1.046   2.085   0.042   0.042   0.000   0.000
0.04625   0.00425   309.185   686.719   1.046   2.085   0.042   0.042   0.000   0.000
0.04875   0.00425   315.981   686.719   1.046   2.085   0.042   0.000   0.000   6.088
0.00125   0.00375   294.181   1137.797   2.085   268.000   0.000   10.720   0.000   0.000
0.00375   0.00375   294.235   1137.797   2.085   268.000   10.720   10.720   0.000   0.000
0.00625   0.00375   294.346   1137.797   2.085   268.000   10.720   10.720   0.000   0.000
0.00875   0.00375   294.514   1137.797   2.085   268.000   10.720   10.720   0.000   0.000
0.01125   0.00375   294.742   1137.797   2.085   268.000   10.720   10.720   0.000   0.000
0.01375   0.00375   295.034   1137.797   2.085   268.000   10.720   10.720   0.000   0.000
0.01625   0.00375   295.394   1137.797   2.085   268.000   10.720   10.720   0.000   0.000
0.01875   0.00375   295.827   1137.797   2.085   268.000   10.720   10.720   0.000   0.000
0.02125   0.00375   296.336   1137.797   2.085   268.000   10.720   10.720   0.000   0.000
0.02375   0.00375   296.927   1137.797   2.085   268.000   10.720   10.720   0.000   0.000
0.02625   0.00375   297.604   1137.797   2.085   268.000   10.720   10.720   0.000   0.000
0.02875   0.00375   298.370   1137.797   2.085   268.000   10.720   10.720   0.000   0.000
0.03125   0.00375   299.227   1137.797   2.085   268.000   10.720   10.720   0.000   0.000
0.03375   0.00375   300.176   1137.797   2.085   268.000   10.720   10.720   0.000   0.000
0.03625   0.00375   301.220   1137.797   2.085   268.000   10.720   10.720   0.000   0.000
0.03875   0.00375   302.359   1137.797   2.085   268.000   10.720   10.720   0.000   0.000
0.04125   0.00375   303.599   1137.797   2.085   268.000   10.720   10.720   0.000   0.000
0.04375   0.00375   304.941   1137.797   2.085   268.000   10.720   10.720   0.000   0.000
0.04625   0.00375   306.397   1137.797   2.085   268.000   10.720   10.720   0.000   0.000
0.04875   0.00375   308.005   1137.797   2.085   268.000   10.720   0.000   0.000   16.257
0.00125   0.00325   294.180   1137.797   268.000   268.000   0.000   10.720   0.000   0.000
0.00375   0.00325   294.235   1137.797   268.000   268.000   10.720   10.720   0.000   0.000
0.00625   0.00325   294.345   1137.797   268.000   268.000   10.720   10.720   0.000   0.000
0.00875   0.00325   294.513   1137.797   268.000   268.000   10.720   10.720   0.000   0.000
0.01125   0.00325   294.741   1137.797   268.000   268.000   10.720   10.720   0.000   0.000
0.01375   0.00325   295.032   1137.797   268.000   268.000   10.720   10.720   0.000   0.000
0.01625   0.00325   295.392   1137.797   268.000   268.000   10.720   10.720   0.000   0.000
0.01875   0.00325   295.823   1137.797   268.000   268.000   10.720   10.720   0.000   0.000
0.02125   0.00325   296.332   1137.797   268.000   268.000   10.720   10.720   0.000   0.000
0.02375   0.00325   296.921   1137.797   268.000   268.000   10.720   10.720   0.000   0.000
0.02625   0.00325   297.597   1137.797   268.000   268.000   10.720   10.720   0.000   0.000
0.02875   0.00325   298.361   1137.797   268.000   268.000   10.720   10.720   0.000   0.000
0.03125   0.00325   299.216   1137.797   268.000   268.000   10.720   10.720   0.000   0.000
0.03375   0.00325   300.164   1137.797   268.000   268.000   10.720   10.720   0.000   0.000
0.03625   0.00325   301.206   1137.797   268.000   268.000   10.720   10.720   0.000   0.000
0.03875   0.00325   302.344   1137.797   268.000   268.000   10.720   10.720   0.000   0.000
0.04125   0.00325   303.582   1137.797   268.000   268.000   10.720   10.720   0.000   0.000
0.04375   0.00325   304.924   1137.797   268.000   268.000   10.720   10.720   0.000   0.000
0.04625   0.00325   306.376   1137.797   268.000   268.000   10.720   10.720   0.000   0.000
0.04875   0.00325   307.953   1137.797   268.000   268.000   10.720   0.000   0.000   16.257
0.00125   0.00275   294.179   1137.797   268.000   268.000   0.000   10.720   0.000   0.000
0.00375   0.00275   294.234   1137.797   268.000   268.000   10.720   10.720   0.000   0.000
0.00625   0.00275   294.344   1137.797   268.000   268.000   10.720   10.720   0.000   0.000
0.00875   0.00275   294.512   1137.797   268.000   268.000   10.720   10.720   0.000   0.000
0.01125   0.00275   294.739   1137.797   268.000   268.000   10.720   10.720   0.000   0.000
0.01375   0.00275   295.030   1137.797   268.000   268.000   10.720   10.720   0.000   0.000
0.01625   0.00275   295.389   1137.797   268.000   268.000   10.720   10.720   0.000   0.000
0.01875   0.00275   295.820   1137.797   268.000   268.000   10.720   10.720   0.000   0.000
0.02125   0.00275   296.328   1137.797   268.000   268.000   10.720   10.720   0.000   0.000
0.02375   0.00275   296.917   1137.797   268.000   268.000   10.720   10.720   0.000   0.000
0.02625   0.00275   297.590   1137.797   268.000   268.000   10.720   10.720   0.000   0.000
0.02875   0.00275   298.353   1137.797   268.000   268.000   10.720   10.720   0.000   0.000
0.03125   0.00275   299.207   1137.797   268.000   268.000   10.720   10.720   0.000   0.000
0.03375   0.00275   300.153   1137.797   268.000   268.000   10.720   10.720   0.000   0.000
0.03625   0.00275   301.194   1137.797   268.000   268.000   10.720   10.720   0.000   0.000
0.03875   0.00275   302.331   1137.797   268.000   268.000   10.720   10.720   0.000   0.000
0.04125   0.00275   303.569   1137.797   268.000   268.000   10.720   10.720   0.000   0.000
0.04375   0.00275   304.909   1137.797   268.000   268.000   10.720   10.720   0.000   0.000
0.04625   0.00275   306.357   1137.797   268.000   268.000   10.720   10.720   0.000   0.000
0.04875   0.00275   307.911   1137.797   268.000   268.000   10.720   0.000   0.000   16.257
0.00125   0.00225   294.179   1137.797   268.000   268.000   0.000   10.720   0.000   0.000
0.00375   0.00225   294.233   1137.797   268.000   268.000   10.720   10.720   0.000   0.000
0.00625   0.00225   294.343   1137.797   268.000   268.000   10.720   10.720   0.000   0.000
0.00875   0.00225   294.511   1137.797   268.000   268.000   10.720   10.720   0.000   0.000
0.01125   0.00225   294.738   1137.797   268.000   268.000   10.720   10.720   0.000   0.000
0.01375   0.00225   295.029   1137.797   268.000   268.000   10.720   10.720   0.000   0.000
0.01625   0.00225   295.387   1137.797   268.000   268.000   10.720   10.720   0.000   0.000
0.01875   0.00225   295.818   1137.797   268.000   268.000   10.720   10.720   0.000   0.000
0.02125   0.00225   296.325   1137.797   268.000   268.000   10.720   10.720   0.000   0.000
0.02375   0.00225   296.912   1137.797   268.000   268.000   10.720   10.720   0.000   0.000
0.02625   0.00225   297.585   1137.797   268.000   268.000   10.720   10.720   0.000   0.000
0.02875   0.00225   298.347   1137.797   268.000   268.000   10.720   10.720   0.000   0.000
0.03125   0.00225   299.199   1137.797   268.000   268.000   10.720   10.720   0.000   0.000
0.03375   0.00225   300.144   1137.797   268.000   268.000   10.720   10.720   0.000   0.000
0.03625   0.00225   301.184   1137.797   268.000   268.000   10.720   10.720   0.000   0.000
0.03875   0.00225   302.321   1137.797   268.000   268.000   10.720   10.720   0.000   0.000
0.04125   0.00225   303.557   1137.797   268.000   268.000   10.720   10.720   0.000   0.000
0.04375   0.00225   304.896   1137.797   268.000   268.000   10.720   10.720   0.000   0.000
0.04625   0.00225   306.340   1137.797   268.000   268.000   10.720   10.720   0.000   0.000
0.04875   0.00225   307.877   1137.797   268.000   268.000   10.720   0.000   0.000   16.257
0.00125   0.00175   294.178   1137.797   268.000   268.000   0.000   10.720   0.000   0.000
0.00375   0.00175   294.233   1137.797   268.000   268.000   10.720   10.720   0.000   0.000
0.00625   0.00175   294.343   1137.797   268.000   268.000   10.720   10.720   0.000   0.000
0.00875   0.00175   294.510   1137.797   268.000   268.000   10.720   10.720   0.000   0.000
0.01125   0.00175   294.737   1137.797   268.000   268.000   10.720   10.720   0.000   0.000
0.01375   0.00175   295.028   1137.797   268.000   268.000   10.720   10.720   0.000   0.000
0.01625   0.00175   295.386   1137.797   268.000   268.000   10.720   10.720   0.000   0.000
0.01875   0.00175   295.816   1137.797   268.000   268.000   10.720   10.720   0.000   0.000
0.02125   0.00175   296.322   1137.797   268.000   268.000   10.720   10.720   0.000   0.000