VARIABLES = X, Y, T, ap,an,as,aw,ae,sp,su
ZONE I=20,J=20, F=POINT,t="1.476"
0.00125   0.00975   293.000   1137.797   0.000   268.000   0.000   10.720   0.000   -0.000
0.00375   0.00975   293.000   1137.797   0.000   268.000   10.720   10.720   0.000   -0.000
0.00625   0.00975   293.000   1137.797   0.000   268.000   10.720   10.720   0.000   -0.000
0.00875   0.00975   293.000   1137.797   0.000   268.000   10.720   10.720   0.000   -0.000
0.01125   0.00975   293.002   1137.797   0.000   268.000   10.720   10.720   0.000   -0.000
0.01375   0.00975   293.005   1137.797   0.000   268.000   10.720   10.720   0.000   -0.000
0.01625   0.00975   293.015   1137.797   0.000   268.000   10.720   10.720   0.000   -0.000
0.01875   0.00975   293.043   1137.797   0.000   268.000   10.720   10.720   0.000   -0.000
0.02125   0.00975   293.110   1137.797   0.000   268.000   10.720   10.720   0.000   -0.000
0.02375   0.00975   293.263   1137.797   0.000   268.000   10.720   10.720   0.000   -0.000
0.02625   0.00975   293.580   1137.797   0.000   268.000   10.720   10.720   0.000   -0.000
0.02875   0.00975   294.218   1137.797   0.000   268.000   10.720   10.720   0.000   -0.001
0.03125   0.00975   295.696   1137.797   0.000   268.000   10.720   10.720   0.000   81.435
0.03375   0.00975   296.347   1137.797   0.000   268.000   10.720   10.720   0.000   81.427
0.03625   0.00975   296.702   1137.797   0.000   268.000   10.720   10.720   0.000   81.422
0.03875   0.00975   296.946   1137.797   0.000   268.000   10.720   10.720   0.000   81.419
0.04125   0.00975   297.211   1137.797   0.000   268.000   10.720   10.720   0.000   81.416
0.04375   0.00975   297.624   1137.797   0.000   268.000   10.720   10.720   0.000   81.411
0.04625   0.00975   298.313   1137.797   0.000   268.000   10.720   10.720   0.000   81.402
0.04875   0.00975   299.390   1137.797   0.000   268.000   10.720   0.000   0.000   97.667
0.00125   0.00925   293.000   1137.797   268.000   268.000   0.000   10.720   0.000   0.000
0.00375   0.00925   293.000   1137.797   268.000   268.000   10.720   10.720   0.000   0.000
0.00625   0.00925   293.000   1137.797   268.000   268.000   10.720   10.720   0.000   0.000
0.00875   0.00925   293.000   1137.797   268.000   268.000   10.720   10.720   0.000   0.000
0.01125   0.00925   293.002   1137.797   268.000   268.000   10.720   10.720   0.000   0.000
0.01375   0.00925   293.005   1137.797   268.000   268.000   10.720   10.720   0.000   0.000
0.01625   0.00925   293.015   1137.797   268.000   268.000   10.720   10.720   0.000   0.000
0.01875   0.00925   293.043   1137.797   268.000   268.000   10.720   10.720   0.000   0.000
0.02125   0.00925   293.110   1137.797   268.000   268.000   10.720   10.720   0.000   0.000
0.02375   0.00925   293.262   1137.797   268.000   268.000   10.720   10.720   0.000   0.000
0.02625   0.00925   293.577   1137.797   268.000   268.000   10.720   10.720   0.000   0.000
0.02875   0.00925   294.200   1137.797   268.000   268.000   10.720   10.720   0.000   0.000
0.03125   0.00925   295.447   1137.797   268.000   268.000   10.720   10.720   0.000   0.000
0.03375   0.00925   296.082   1137.797   268.000   268.000   10.720   10.720   0.000   0.000
0.03625   0.00925   296.435   1137.797   268.000   268.000   10.720   10.720   0.000   0.000
0.03875   0.00925   296.678   1137.797   268.000   268.000   10.720   10.720   0.000   0.000
0.04125   0.00925   296.943   1137.797   268.000   268.000   10.720   10.720   0.000   0.000
0.04375   0.00925   297.356   1137.797   268.000   268.000   10.720   10.720   0.000   0.000
0.04625   0.00925   298.045   1137.797   268.000   268.000   10.720   10.720   0.000   0.000
0.04875   0.00925   299.123   1137.797   268.000   268.000   10.720   0.000   0.000   16.279
0.00125   0.00875   293.000   1137.797   268.000   268.000   0.000   10.720   0.000   0.000
0.00375   0.00875   293.000   1137.797   268.000   268.000   10.720   10.720   0.000   0.000
0.00625   0.00875   293.000   1137.797   268.000   268.000   10.720   10.720   0.000   0.000
0.00875   0.00875   293.000   1137.797   268.000   268.000   10.720   10.720   0.000   0.000
0.01125   0.00875   293.002   1137.797   268.000   268.000   10.720   10.720   0.000   0.000
0.01375   0.00875   293.005   1137.797   268.000   268.000   10.720   10.720   0.000   0.000
0.01625   0.00875   293.015   1137.797   268.000   268.000   10.720   10.720   0.000   0.000
0.01875   0.00875   293.043   1137.797   268.000   268.000   10.720   10.720   0.000   0.000
0.02125   0.00875   293.110   1137.797   268.000   268.000   10.720   10.720   0.000   0.000
0.02375   0.00875   293.261   1137.797   268.000   268.000   10.720   10.720   0.000   0.000
0.02625   0.00875   293.573   1137.797   268.000   268.000   10.720   10.720   0.000   0.000
0.02875   0.00875   294.172   1137.797   268.000   268.000   10.720   10.720   0.000   0.000
0.03125   0.00875   295.243   1137.797   268.000   268.000   10.720   10.720   0.000   0.000
0.03375   0.00875   295.856   1137.797   268.000   268.000   10.720   10.720   0.000   0.000
0.03625   0.00875   296.205   1137.797   268.000   268.000   10.720   10.720   0.000   0.000
0.03875   0.00875   296.447   1137.797   268.000   268.000   10.720   10.720   0.000   0.000
0.04125   0.00875   296.711   1137.797   268.000   268.000   10.720   10.720   0.000   0.000
0.04375   0.00875   297.124   1137.797   268.000   268.000   10.720   10.720   0.000   0.000
0.04625   0.00875   297.813   1137.797   268.000   268.000   10.720   10.720   0.000   0.000
0.04875   0.00875   298.892   1137.797   268.000   268.000   10.720   0.000   0.000   16.280
0.00125   0.00825   293.000   1137.797   268.000   268.000   0.000   10.720   0.000   0.000
0.00375   0.00825   293.000   1137.797   268.000   268.000   10.720   10.720   0.000   0.000
0.00625   0.00825   293.000   1137.797   268.000   268.000   10.720   10.720   0.000   0.000
0.00875   0.00825   293.000   1137.797   268.000   268.000   10.720   10.720   0.000   0.000
0.01125   0.00825   293.002   1137.797   268.000   268.000   10.720   10.720   0.000   0.000
0.01375   0.00825   293.005   1137.797   268.000   268.000   10.720   10.720   0.000   0.000
0.01625   0.00825   293.015   1137.797   268.000   268.000   10.720   10.720   0.000   0.000
0.01875   0.00825   293.043   1137.797   268.000   268.000   10.720   10.720   0.000   0.000
0.02125   0.00825   293.110   1137.797   268.000   268.000   10.720   10.720   0.000   0.000
0.02375   0.00825   293.260   1137.797   268.000   268.000   10.720   10.720   0.000   0.000
0.02625   0.00825   293.567   1137.797   268.000   268.000   10.720   10.720   0.000   0.000
0.02875   0.00825   294.141   1137.797   268.000   268.000   10.720   10.720   0.000   0.000
0.03125   0.00825   295.079   1137.797   268.000   268.000   10.720   10.720   0.000   0.000
0.03375   0.00825   295.667   1137.797   268.000   268.000   10.720   10.720   0.000   0.000
0.03625   0.00825   296.011   1137.797   268.000   268.000   10.720   10.720   0.000   0.000
0.03875   0.00825   296.252   1137.797   268.000   268.000   10.720   10.720   0.000   0.000
0.04125   0.00825   296.516   1137.797   268.000   268.000   10.720   10.720   0.000   0.000
0.04375   0.00825   296.928   1137.797   268.000   268.000   10.720   10.720   0.000   0.000
0.04625   0.00825   297.617   1137.797   268.000   268.000   10.720   10.720   0.000   0.000
0.04875   0.00825   298.698   1137.797   268.000   268.000   10.720   0.000   0.000   16.280
0.00125   0.00775   293.000   1137.797   268.000   268.000   0.000   10.720   0.000   0.000
0.00375   0.00775   293.000   1137.797   268.000   268.000   10.720   10.720   0.000   0.000
0.00625   0.00775   293.000   1137.797   268.000   268.000   10.720   10.720   0.000   0.000
0.00875   0.00775   293.000   1137.797   268.000   268.000   10.720   10.720   0.000   0.000
0.01125   0.00775   293.002   1137.797   268.000   268.000   10.720   10.720   0.000   0.000
0.01375   0.00775   293.005   1137.797   268.000   268.000   10.720   10.720   0.000   0.000
0.01625   0.00775   293.015   1137.797   268.000   268.000   10.720   10.720   0.000   0.000
0.01875   0.00775   293.043   1137.797   268.000   268.000   10.720   10.720   0.000   0.000
0.02125   0.00775   293.109   1137.797   268.000   268.000   10.720   10.720   0.000   0.000
0.02375   0.00775   293.258   1137.797   268.000   268.000   10.720   10.720   0.000   0.000
0.02625   0.00775   293.560   1137.797   268.000   268.000   10.720   10.720   0.000   0.000
0.02875   0.00775   294.111   1137.797   268.000   268.000   10.720   10.720   0.000   0.000
0.03125   0.00775   294.951   1137.797   268.000   268.000   10.720   10.720   0.000   0.000
0.03375   0.00775   295.515   1137.797   268.000   268.000   10.720   10.720   0.000   0.000
0.03625   0.00775   295.854   1137.797   268.000   268.000   10.720   10.720   0.000   0.000
0.03875   0.00775   296.094   1137.797   268.000   268.000   10.720   10.720   0.000   0.000
0.04125   0.00775   296.356   1137.797   268.000   268.000   10.720   10.720   0.000   0.000
0.04375   0.00775   296.768   1137.797   268.000   268.000   10.720   10.720   0.000   0.000
0.04625   0.00775   297.456   1137.797   268.000   268.000   10.720   10.720   0.000   0.000
0.04875   0.00775   298.540   1137.797   268.000   268.000   10.720   0.000   0.000   16.281
0.00125   0.00725   293.000   1137.797   268.000   268.000   0.000   10.720   0.000   0.000
0.00375   0.00725   293.000   1137.797   268.000   268.000   10.720   10.720   0.000   0.000
0.00625   0.00725   293.000   1137.797   268.000   268.000   10.720   10.720   0.000   0.000
0.00875   0.00725   293.000   1137.797   268.000   268.000   10.720   10.720   0.000   0.000
0.01125   0.00725   293.002   1137.797   268.000   268.000   10.720   10.720   0.000   0.000
0.01375   0.00725   293.005   1137.797   268.000   268.000   10.720   10.720   0.000   0.000
0.01625   0.00725   293.015   1137.797   268.000   268.000   10.720   10.720   0.000   0.000
0.01875   0.00725   293.042   1137.797   268.000   268.000   10.720   10.720   0.000   0.000
0.02125   0.00725   293.109   1137.797   268.000   268.000   10.720   10.720   0.000   0.000
0.02375   0.00725   293.256   1137.797   268.000   268.000   10.720   10.720   0.000   0.000
0.02625   0.00725   293.554   1137.797   268.000   268.000   10.720   10.720   0.000   0.000
0.02875   0.00725   294.085   1137.797   268.000   268.000   10.720   10.720   0.000   0.000
0.03125   0.00725   294.854   1137.797   268.000   268.000   10.720   10.720   0.000   0.000
0.03375   0.00725   295.398   1137.797   268.000   268.000   10.720   10.720   0.000   0.000
0.03625   0.00725   295.733   1137.797   268.000   268.000   10.720   10.720   0.000   0.000
0.03875   0.00725   295.971   1137.797   268.000   268.000   10.720   10.720   0.000   0.000
0.04125   0.00725   296.233   1137.797   268.000   268.000   10.720   10.720   0.000   0.000
0.04375   0.00725   296.643   1137.797   268.000   268.000   10.720   10.720   0.000   0.000
0.04625   0.00725   297.331   1137.797   268.000   268.000   10.720   10.720   0.000   0.000
0.04875   0.00725   298.419   1137.797   268.000   268.000   10.720   0.000   0.000   16.281
0.00125   0.00675   293.000   1137.797   268.000   268.000   0.000   10.720   0.000   0.000
0.00375   0.00675   293.000   1137.797   268.000   268.000   10.720   10.720   0.000   0.000
0.00625   0.00675   293.000   1137.797   268.000   268.000   10.720   10.720   0.000   0.000
0.00875   0.00675   293.000   1137.797   268.000   268.000   10.720   10.720   0.000   0.000
0.01125   0.00675   293.002   1137.797   268.000   268.000   10.720   10.720   0.000   0.000
0.01375   0.00675   293.005   1137.797   268.000   268.000   10.720   10.720   0.000   0.000
0.01625   0.00675   293.015   1137.797   268.000   268.000   10.720   10.720   0.000   0.000
0.01875   0.00675   293.042   1137.797   268.000   268.000   10.720   10.720   0.000   0.000
0.02125   0.00675   293.108   1137.797   268.000   268.000   10.720   10.720   0.000   0.000
0.02375   0.00675   293.254   1137.797   268.000   268.000   10.720   10.720   0.000   0.000
0.02625   0.00675   293.548   1137.797   268.000   268.000   10.720   10.720   0.000   0.000
0.02875   0.00675   294.065   1137.797   268.000   268.000   10.720   10.720   0.000   0.000
0.03125   0.00675   294.788   1137.797   268.000   268.000   10.720   10.720   0.000   0.000
0.03375   0.00675   295.317   1137.797   268.000   268.000   10.720   10.720   0.000   0.000
0.03625   0.00675   295.648   1137.797   268.000   268.000   10.720   10.720   0.000   0.000
0.03875   0.00675   295.885   1137.797   268.000   268.000   10.720   10.720   0.000   0.000
0.04125   0.00675   296.145   1137.797   268.000   268.000   10.720   10.720   0.000   0.000
0.04375   0.00675   296.554   1137.797   268.000   268.000   10.720   10.720   0.000   0.000
0.04625   0.00675   297.240   1137.797   268.000   268.000   10.720   10.720   0.000   0.000
0.04875   0.00675   298.335   1137.797   268.000   268.000   10.720   0.000   0.000   16.281
0.00125   0.00625   293.000   1137.797   268.000   2.085   0.000   10.720   0.000   0.000
0.00375   0.00625   293.000   1137.797   268.000   2.085   10.720   10.720   0.000   0.000
0.00625   0.00625   293.000   1137.797   268.000   2.085   10.720   10.720   0.000   0.000
0.00875   0.00625   293.000   1137.797   268.000   2.085   10.720   10.720   0.000   0.000
0.01125   0.00625   293.002   1137.797   268.000   2.085   10.720   10.720   0.000   0.000
0.01375   0.00625   293.005   1137.797   268.000   2.085   10.720   10.720   0.000   0.000
0.01625   0.00625   293.015   1137.797   268.000   2.085   10.720   10.720   0.000   0.000
0.01875   0.00625   293.042   1137.797   268.000   2.085   10.720   10.720   0.000   0.000
0.02125   0.00625   293.107   1137.797   268.000   2.085   10.720   10.720   0.000   0.000
0.02375   0.00625   293.253   1137.797   268.000   2.085   10.720   10.720   0.000   0.000
0.02625   0.00625   293.544   1137.797   268.000   2.085   10.720   10.720   0.000   0.000
0.02875   0.00625   294.051   1137.797   268.000   2.085   10.720   10.720   0.000   0.000
0.03125   0.00625   294.751   1137.797   268.000   2.085   10.720   10.720   0.000   0.000
0.03375   0.00625   295.271   1137.797   268.000   2.085   10.720   10.720   0.000   0.000
0.03625   0.00625   295.599   1137.797   268.000   2.085   10.720   10.720   0.000   0.000
0.03875   0.00625   295.834   1137.797   268.000   2.085   10.720   10.720   0.000   0.000
0.04125   0.00625   296.093   1137.797   268.000   2.085   10.720   10.720   0.000   0.000
0.04375   0.00625   296.500   1137.797   268.000   2.085   10.720   10.720   0.000   0.000
0.04625   0.00625   297.185   1137.797   268.000   2.085   10.720   10.720   0.000   0.000
0.04875   0.00625   298.288   1137.797   268.000   2.085   10.720   0.000   0.000   16.281
0.00125   0.00575   293.000   686.719   2.085   1.046   0.000   0.042   0.000   0.000
0.00375   0.00575   293.000   686.719   2.085   1.046   0.042   0.042   0.000   0.000
0.00625   0.00575   293.000   686.719   2.085   1.046   0.042   0.042   0.000   0.000
0.00875   0.00575   293.000   686.719   2.085   1.046   0.042   0.042   0.000   0.000
0.01125   0.00575   293.000   686.719   2.085   1.046   0.042   0.042   0.000   0.000
0.01375   0.00575   293.001   686.719   2.085   1.046   0.042   0.042   0.000   0.000
0.01625   0.00575   293.003   686.719   2.085   1.046   0.042   0.042   0.000   0.000
0.01875   0.00575   293.008   686.719   2.085   1.046   0.042   0.042   0.000   0.000
0.02125   0.00575   293.023   686.719   2.085   1.046   0.042   0.042   0.000   0.000
0.02375   0.00575   293.062   686.719   2.085   1.046   0.042   0.042   0.000   0.000
0.02625   0.00575   293.151   686.719   2.085   1.046   0.042   0.042   0.000   0.000
0.02875   0.00575   293.325   686.719   2.085   1.046   0.042   0.042   0.000   0.000
0.03125   0.00575   293.585   686.719   2.085   1.046   0.042   0.042   0.000   0.000
0.03375   0.00575   293.762   686.719   2.085   1.046   0.042   0.042   0.000   0.000
0.03625   0.00575   293.859   686.719   2.085   1.046   0.042   0.042   0.000   0.000
0.03875   0.00575   293.919   686.719   2.085   1.046   0.042   0.042   0.000   0.000
0.04125   0.00575   293.990   686.719   2.085   1.046   0.042   0.042   0.000   0.000
0.04375   0.00575   294.122   686.719   2.085   1.046   0.042   0.042   0.000   0.000
0.04625   0.00575   294.410   686.719   2.085   1.046   0.042   0.042   0.000   0.000
0.04875   0.00575   297.011   686.719   2.085   1.046   0.042   0.000   0.000   6.107
0.00125   0.00525   293.000   686.719   1.046   1.046   0.000   0.042   0.000   0.000
0.00375   0.00525   293.000   686.719   1.046   1.046   0.042   0.042   0.000   0.000
0.00625   0.00525   293.000   686.719   1.046   1.046   0.042   0.042   0.000   0.000
0.00875   0.00525   293.000   686.719   1.046   1.046   0.042   0.042   0.000   0.000
0.01125   0.00525   293.000   686.719   1.046   1.046   0.042   0.042   0.000   0.000
0.01375   0.00525   293.000   686.719   1.046   1.046   0.042   0.042   0.000   0.000
0.01625   0.00525   293.000   686.719   1.046   1.046   0.042   0.042   0.000   0.000
0.01875   0.00525   293.001   686.719   1.046   1.046   0.042   0.042   0.000   0.000
0.02125   0.00525   293.002   686.719   1.046   1.046   0.042   0.042   0.000   0.000
0.02375   0.00525   293.007   686.719   1.046   1.046   0.042   0.042   0.000   0.000
0.02625   0.00525   293.019   686.719   1.046   1.046   0.042   0.042   0.000   0.000
0.02875   0.00525   293.045   686.719   1.046   1.046   0.042   0.042   0.000   0.000
0.03125   0.00525   293.087   686.719   1.046   1.046   0.042   0.042   0.000   0.000
0.03375   0.00525   293.114   686.719   1.046   1.046   0.042   0.042   0.000   0.000
0.03625   0.00525   293.127   686.719   1.046   1.046   0.042   0.042   0.000   0.000
0.03875   0.00525   293.134   686.719   1.046   1.046   0.042   0.042   0.000   0.000
0.04125   0.00525   293.143   686.719   1.046   1.046   0.042   0.042   0.000   0.000
0.04375   0.00525   293.164   686.719   1.046   1.046   0.042   0.042   0.000   0.000
0.04625   0.00525   293.248   686.719   1.046   1.046   0.042   0.042   0.000   0.000
0.04875   0.00525   296.373   686.719   1.046   1.046   0.042   0.000   0.000   6.107
0.00125   0.00475   293.000   686.719   1.046   1.046   0.000   0.042   0.000   0.000
0.00375   0.00475   293.000   686.719   1.046   1.046   0.042   0.042   0.000   0.000
0.00625   0.00475   293.000   686.719   1.046   1.046   0.042   0.042   0.000   0.000
0.00875   0.00475   293.000   686.719   1.046   1.046   0.042   0.042   0.000   0.000
0.01125   0.00475   293.000   686.719   1.046   1.046   0.042   0.042   0.000   0.000
0.01375   0.00475   293.000   686.719   1.046   1.046   0.042   0.042   0.000   0.000
0.01625   0.00475   293.000   686.719   1.046   1.046   0.042   0.042   0.000   0.000
0.01875   0.00475   293.000   686.719   1.046   1.046   0.042   0.042   0.000   0.000
0.02125   0.00475   293.000   686.719   1.046   1.046   0.042   0.042   0.000   0.000
0.02375   0.00475   293.001   686.719   1.046   1.046   0.042   0.042   0.000   0.000
0.02625   0.00475   293.002   686.719   1.046   1.046   0.042   0.042   0.000   0.000
0.02875   0.00475   293.005   686.719   1.046   1.046   0.042   0.042   0.000   0.000
0.03125   0.00475   293.010   686.719   1.046   1.046   0.042   0.042   0.000   0.000
0.03375   0.00475   293.014   686.719   1.046   1.046   0.042   0.042   0.000   0.000
0.03625   0.00475   293.016   686.719   1.046   1.046   0.042   0.042   0.000   0.000
0.03875   0.00475   293.019   686.719   1.046   1.046   0.042   0.042   0.000   0.000
0.04125   0.00475   293.026   686.719   1.046   1.046   0.042   0.042   0.000   0.000
0.04375   0.00475   293.047   686.719   1.046   1.046   0.042   0.042   0.000   0.000
0.04625   0.00475   293.131   686.719   1.046   1.046   0.042   0.042   0.000   0.000
0.04875   0.00475   296.256   686.719   1.046   1.046   0.042   0.000   0.000   6.107
0.00125   0.00425   293.000   686.719   1.046   2.085   0.000   0.042   0.000   0.000
0.00375   0.00425   293.000   686.719   1.046   2.085   0.042   0.042   0.000   0.000
0.00625   0.00425   293.000   686.719   1.046   2.085   0.042   0.042   0.000   0.000
0.00875   0.00425   293.000   686.719   1.046   2.085   0.042   0.042   0.000   0.000
0.01125   0.00425   293.000   686.719   1.046   2.085   0.042   0.042   0.000   0.000
0.01375   0.00425   293.000   686.719   1.046   2.085   0.042   0.042   0.000   0.000
0.01625   0.00425   293.000   686.719   1.046   2.085   0.042   0.042   0.000   0.000
0.01875   0.00425   293.000   686.719   1.046   2.085   0.042   0.042   0.000   0.000
0.02125   0.00425   293.000   686.719   1.046   2.085   0.042   0.042   0.000   0.000
0.02375   0.00425   293.000   686.719   1.046   2.085   0.042   0.042   0.000   0.000
0.02625   0.00425   293.000   686.719   1.046   2.085   0.042   0.042   0.000   0.000
0.02875   0.00425   293.001   686.719   1.046   2.085   0.042   0.042   0.000   0.000
0.03125   0.00425   293.002   686.719   1.046   2.085   0.042   0.042   0.000   0.000
0.03375   0.00425   293.005   686.719   1.046   2.085   0.042   0.042   0.000   0.000
0.03625   0.00425   293.013   686.719   1.046   2.085   0.042   0.042   0.000   0.000
0.03875   0.00425   293.035   686.719   1.046   2.085   0.042   0.042   0.000   0.000
0.04125   0.00425   293.090   686.719   1.046   2.085   0.042   0.042   0.000   0.000
0.04375   0.00425   293.217   686.719   1.046   2.085   0.042   0.042   0.000   0.000
0.04625   0.00425   293.503   686.719   1.046   2.085   0.042   0.042   0.000   0.000
0.04875   0.00425   296.103   686.719   1.046   2.085   0.042   0.000   0.000   6.107
0.00125   0.00375   293.000   1137.797   2.085   268.000   0.000   10.720   0.000   0.000
0.00375   0.00375   293.000   1137.797   2.085   268.000   10.720   10.720   0.000   0.000
0.00625   0.00375   293.000   1137.797   2.085   268.000   10.720   10.720   0.000   0.000
0.00875   0.00375   293.000   1137.797   2.085   268.000   10.720   10.720   0.000   0.000
0.01125   0.00375   293.000   1137.797   2.085   268.000   10.720   10.720   0.000   0.000
0.01375   0.00375   293.000   1137.797   2.085   268.000   10.720   10.720   0.000   0.000
0.01625   0.00375   293.000   1137.797   2.085   268.000   10.720   10.720   0.000   0.000
0.01875   0.00375   293.000   1137.797   2.085   268.000   10.720   10.720   0.000   0.000
0.02125   0.00375   293.000   1137.797   2.085   268.000   10.720   10.720   0.000   0.000
0.02375   0.00375   293.000   1137.797   2.085   268.000   10.720   10.720   0.000   0.000
0.02625   0.00375   293.001   1137.797   2.085   268.000   10.720   10.720   0.000   0.000
0.02875   0.00375   293.002   1137.797   2.085   268.000   10.720   10.720   0.000   0.000
0.03125   0.00375   293.007   1137.797   2.085   268.000   10.720   10.720   0.000   0.000
0.03375   0.00375   293.022   1137.797   2.085   268.000   10.720   10.720   0.000   0.000
0.03625   0.00375   293.059   1137.797   2.085   268.000   10.720   10.720   0.000   0.000
0.03875   0.00375   293.149   1137.797   2.085   268.000   10.720   10.720   0.000   0.000
0.04125   0.00375   293.343   1137.797   2.085   268.000   10.720   10.720   0.000   0.000
0.04375   0.00375   293.723   1137.797   2.085   268.000   10.720   10.720   0.000   0.000
0.04625   0.00375   294.398   1137.797   2.085   268.000   10.720   10.720   0.000   0.000
0.04875   0.00375   295.498   1137.797   2.085   268.000   10.720   0.000   0.000   16.288
0.00125   0.00325   293.000   1137.797   268.000   268.000   0.000   10.720   0.000   0.000
0.00375   0.00325   293.000   1137.797   268.000   268.000   10.720   10.720   0.000   0.000
0.00625   0.00325   293.000   1137.797   268.000   268.000   10.720   10.720   0.000   0.000
0.00875   0.00325   293.000   1137.797   268.000   268.000   10.720   10.720   0.000   0.000
0.01125   0.00325   293.000   1137.797   268.000   268.000   10.720   10.720   0.000   0.000
0.01375   0.00325   293.000   1137.797   268.000   268.000   10.720   10.720   0.000   0.000
0.01625   0.00325   293.000   1137.797   268.000   268.000   10.720   10.720   0.000   0.000
0.01875   0.00325   293.000   1137.797   268.000   268.000   10.720   10.720   0.000   0.000
0.02125   0.00325   293.000   1137.797   268.000   268.000   10.720   10.720   0.000   0.000
0.02375   0.00325   293.000   1137.797   268.000   268.000   10.720   10.720   0.000   0.000
0.02625   0.00325   293.001   1137.797   268.000   268.000   10.720   10.720   0.000   0.000
0.02875   0.00325   293.002   1137.797   268.000   268.000   10.720   10.720   0.000   0.000
0.03125   0.00325   293.007   1137.797   268.000   268.000   10.720   10.720   0.000   0.000
0.03375   0.00325   293.022   1137.797   268.000   268.000   10.720   10.720   0.000   0.000
0.03625   0.00325   293.060   1137.797   268.000   268.000   10.720   10.720   0.000   0.000
0.03875   0.00325   293.150   1137.797   268.000   268.000   10.720   10.720   0.000   0.000
0.04125   0.00325   293.345   1137.797   268.000   268.000   10.720   10.720   0.000   0.000
0.04375   0.00325   293.726   1137.797   268.000   268.000   10.720   10.720   0.000   0.000
0.04625   0.00325   294.403   1137.797   268.000   268.000   10.720   10.720   0.000   0.000
0.04875   0.00325   295.495   1137.797   268.000   268.000   10.720   0.000   0.000   16.288
0.00125   0.00275   293.000   1137.797   268.000   268.000   0.000   10.720   0.000   0.000
0.00375   0.00275   293.000   1137.797   268.000   268.000   10.720   10.720   0.000   0.000
0.00625   0.00275   293.000   1137.797   268.000   268.000   10.720   10.720   0.000   0.000
0.00875   0.00275   293.000   1137.797   268.000   268.000   10.720   10.720   0.000   0.000
0.01125   0.00275   293.000   1137.797   268.000   268.000   10.720   10.720   0.000   0.000
0.01375   0.00275   293.000   1137.797   268.000   268.000   10.720   10.720   0.000   0.000
0.01625   0.00275   293.000   1137.797   268.000   268.000   10.720   10.720   0.000   0.000
0.01875   0.00275   293.000   1137.797   268.000   268.000   10.720   10.720   0.000   0.000
0.02125   0.00275   293.000   1137.797   268.000   268.000   10.720   10.720   0.000   0.000
0.02375   0.00275   293.000   1137.797   268.000   268.000   10.720   10.720   0.000   0.000
0.02625   0.00275   293.001   1137.797   268.000   268.000   10.720   10.720   0.000   0.000
0.02875   0.00275   293.002   1137.797   268.000   268.000   10.720   10.720   0.000   0.000
0.03125   0.00275   293.007   1137.797   268.000   268.000   10.720   10.720   0.000   0.000
0.03375   0.00275   293.022   1137.797   268.000   268.000   10.720   10.720   0.000   0.000
0.03625   0.00275   293.060   1137.797   268.000   268.000   10.720   10.720   0.000   0.000
0.03875   0.00275   293.150   1137.797   268.000   268.000   10.720   10.720   0.000   0.000
0.04125   0.00275   293.346   1137.797   268.000   268.000   10.720   10.720   0.000   0.000
0.04375   0.00275   293.729   1137.797   268.000   268.000   10.720   10.720   0.000   0.000
0.04625   0.00275   294.407   1137.797   268.000   268.000   10.720   10.720   0.000   0.000
0.04875   0.00275   295.493   1137.797   268.000   268.000   10.720   0.000   0.000   16.288
0.00125   0.00225   293.000   1137.797   268.000   268.000   0.000   10.720   0.000   0.000
0.00375   0.00225   293.000   1137.797   268.000   268.000   10.720   10.720   0.000   0.000
0.00625   0.00225   293.000   1137.797   268.000   268.000   10.720   10.720   0.000   0.000
0.00875   0.00225   293.000   1137.797   268.000   268.000   10.720   10.720   0.000   0.000
0.01125   0.00225   293.000   1137.797   268.000   268.000   10.720   10.720   0.000   0.000
0.01375   0.00225   293.000   1137.797   268.000   268.000   10.720   10.720   0.000   0.000
0.01625   0.00225   293.000   1137.797   268.000   268.000   10.720   10.720   0.000   0.000
0.01875   0.00225   293.000   1137.797   268.000   268.000   10.720   10.720   0.000   0.000
0.02125   0.00225   293.000   1137.797   268.000   268.000   10.720   10.720   0.000   0.000
0.02375   0.00225   293.000   1137.797   268.000   268.000   10.720   10.720   0.000   0.000
0.02625   0.00225   293.001   1137.797   268.000   268.000   10.720   10.720   0.000   0.000
0.02875   0.00225   293.002   1137.797   268.000   268.000   10.720   10.720   0.000   0.000
0.03125   0.00225   293.007   1137.797   268.000   268.000   10.720   10.720   0.000   0.000
0.03375   0.00225   293.022   1137.797   268.000   268.000   10.720   10.720   0.000   0.000
0.03625   0.00225   293.060   1137.797   268.000   268.000   10.720   10.720   0.000   0.000
0.03875   0.00225   293.151   1137.797   268.000   268.000   10.720   10.720   0.000   0.000
0.04125   0.00225   293.347   1137.797   268.000   268.000   10.720   10.720   0.000   0.000
0.04375   0.00225   293.731   1137.797   268.000   268.000   10.720   10.720   0.000   0.000
0.04625   0.00225   294.410   1137.797   268.000   268.000   10.720   10.720   0.000   0.000
0.04875   0.00225   295.491   1137.797   268.000   268.000   10.720   0.000   0.000   16.288
0.00125   0.00175   293.000   1137.797   268.000   268.000   0.000   10.720   0.000   0.000
0.00375   0.00175   293.000   1137.797   268.000   268.000   10.720   10.720   0.000   0.000
0.00625   0.00175   293.000   1137.797   268.000   268.000   10.720   10.720   0.000   0.000
0.00875   0.00175   293.000   1137.797   268.000   268.000   10.720   10.720   0.000   0.000
0.01125   0.00175   293.000   1137.797   268.000   268.000   10.720   10.720   0.000   0.000
0.01375   0.00175   293.000   1137.797   268.000   268.000   10.720   10.720   0.000   0.000
0.01625   0.00175   293.000   1137.797   268.000   268.000   10.720   10.720   0.000   0.000
0.01875   0.00175   293.000   1137.797   268.000   268.000   10.720   10.720   0.000   0.000
0.02125   0.00175   293.000   1137.797   268.000   268.000   10.720   10.720   0.000   0.000