VARIABLES = X, Y, T, ap,an,as,aw,ae,sp,su
ZONE I=20,J=20, F=POINT,t="28.428"
0.00125   0.00975   300.403   1137.797   0.000   268.000   0.000   10.720   0.000   -0.006
0.00375   0.00975   300.675   1137.797   0.000   268.000   10.720   10.720   0.000   -0.006
0.00625   0.00975   301.223   1137.797   0.000   268.000   10.720   10.720   0.000   -0.006
0.00875   0.00975   302.055   1137.797   0.000   268.000   10.720   10.720   0.000   -0.007
0.01125   0.00975   303.184   1137.797   0.000   268.000   10.720   10.720   0.000   -0.008
0.01375   0.00975   304.625   1137.797   0.000   268.000   10.720   10.720   0.000   -0.009
0.01625   0.00975   306.397   1137.797   0.000   268.000   10.720   10.720   0.000   -0.010
0.01875   0.00975   308.523   1137.797   0.000   268.000   10.720   10.720   0.000   -0.012
0.02125   0.00975   311.029   1137.797   0.000   268.000   10.720   10.720   0.000   -0.014
0.02375   0.00975   313.943   1137.797   0.000   268.000   10.720   10.720   0.000   -0.016
0.02625   0.00975   317.303   1137.797   0.000   268.000   10.720   10.720   0.000   -0.018
0.02875   0.00975   321.186   1137.797   0.000   268.000   10.720   10.720   0.000   -0.021
0.03125   0.00975   326.002   1137.797   0.000   268.000   10.720   10.720   0.000   80.998
0.03375   0.00975   329.971   1137.797   0.000   268.000   10.720   10.720   0.000   80.932
0.03625   0.00975   333.499   1137.797   0.000   268.000   10.720   10.720   0.000   80.871
0.03875   0.00975   336.662   1137.797   0.000   268.000   10.720   10.720   0.000   80.814
0.04125   0.00975   339.490   1137.797   0.000   268.000   10.720   10.720   0.000   80.763
0.04375   0.00975   342.003   1137.797   0.000   268.000   10.720   10.720   0.000   80.716
0.04625   0.00975   344.211   1137.797   0.000   268.000   10.720   10.720   0.000   80.674
0.04875   0.00975   346.097   1137.797   0.000   268.000   10.720   0.000   0.000   96.772
0.00125   0.00925   300.401   1137.797   268.000   268.000   0.000   10.720   0.000   0.000
0.00375   0.00925   300.673   1137.797   268.000   268.000   10.720   10.720   0.000   0.000
0.00625   0.00925   301.221   1137.797   268.000   268.000   10.720   10.720   0.000   0.000
0.00875   0.00925   302.053   1137.797   268.000   268.000   10.720   10.720   0.000   0.000
0.01125   0.00925   303.182   1137.797   268.000   268.000   10.720   10.720   0.000   0.000
0.01375   0.00925   304.622   1137.797   268.000   268.000   10.720   10.720   0.000   0.000
0.01625   0.00925   306.394   1137.797   268.000   268.000   10.720   10.720   0.000   0.000
0.01875   0.00925   308.520   1137.797   268.000   268.000   10.720   10.720   0.000   0.000
0.02125   0.00925   311.026   1137.797   268.000   268.000   10.720   10.720   0.000   0.000
0.02375   0.00925   313.939   1137.797   268.000   268.000   10.720   10.720   0.000   0.000
0.02625   0.00925   317.297   1137.797   268.000   268.000   10.720   10.720   0.000   0.000
0.02875   0.00925   321.164   1137.797   268.000   268.000   10.720   10.720   0.000   0.000
0.03125   0.00925   325.750   1137.797   268.000   268.000   10.720   10.720   0.000   0.000
0.03375   0.00925   329.703   1137.797   268.000   268.000   10.720   10.720   0.000   0.000
0.03625   0.00925   333.229   1137.797   268.000   268.000   10.720   10.720   0.000   0.000
0.03875   0.00925   336.392   1137.797   268.000   268.000   10.720   10.720   0.000   0.000
0.04125   0.00925   339.220   1137.797   268.000   268.000   10.720   10.720   0.000   0.000
0.04375   0.00925   341.734   1137.797   268.000   268.000   10.720   10.720   0.000   0.000
0.04625   0.00925   343.942   1137.797   268.000   268.000   10.720   10.720   0.000   0.000
0.04875   0.00925   345.831   1137.797   268.000   268.000   10.720   0.000   0.000   16.136
0.00125   0.00875   300.398   1137.797   268.000   268.000   0.000   10.720   0.000   0.000
0.00375   0.00875   300.669   1137.797   268.000   268.000   10.720   10.720   0.000   0.000
0.00625   0.00875   301.217   1137.797   268.000   268.000   10.720   10.720   0.000   0.000
0.00875   0.00875   302.049   1137.797   268.000   268.000   10.720   10.720   0.000   0.000
0.01125   0.00875   303.178   1137.797   268.000   268.000   10.720   10.720   0.000   0.000
0.01375   0.00875   304.618   1137.797   268.000   268.000   10.720   10.720   0.000   0.000
0.01625   0.00875   306.389   1137.797   268.000   268.000   10.720   10.720   0.000   0.000
0.01875   0.00875   308.515   1137.797   268.000   268.000   10.720   10.720   0.000   0.000
0.02125   0.00875   311.019   1137.797   268.000   268.000   10.720   10.720   0.000   0.000
0.02375   0.00875   313.931   1137.797   268.000   268.000   10.720   10.720   0.000   0.000
0.02625   0.00875   317.285   1137.797   268.000   268.000   10.720   10.720   0.000   0.000
0.02875   0.00875   321.129   1137.797   268.000   268.000   10.720   10.720   0.000   0.000
0.03125   0.00875   325.540   1137.797   268.000   268.000   10.720   10.720   0.000   0.000
0.03375   0.00875   329.470   1137.797   268.000   268.000   10.720   10.720   0.000   0.000
0.03625   0.00875   332.992   1137.797   268.000   268.000   10.720   10.720   0.000   0.000
0.03875   0.00875   336.154   1137.797   268.000   268.000   10.720   10.720   0.000   0.000
0.04125   0.00875   338.982   1137.797   268.000   268.000   10.720   10.720   0.000   0.000
0.04375   0.00875   341.495   1137.797   268.000   268.000   10.720   10.720   0.000   0.000
0.04625   0.00875   343.705   1137.797   268.000   268.000   10.720   10.720   0.000   0.000
0.04875   0.00875   345.600   1137.797   268.000   268.000   10.720   0.000   0.000   16.137
0.00125   0.00825   300.393   1137.797   268.000   268.000   0.000   10.720   0.000   0.000
0.00375   0.00825   300.664   1137.797   268.000   268.000   10.720   10.720   0.000   0.000
0.00625   0.00825   301.212   1137.797   268.000   268.000   10.720   10.720   0.000   0.000
0.00875   0.00825   302.044   1137.797   268.000   268.000   10.720   10.720   0.000   0.000
0.01125   0.00825   303.171   1137.797   268.000   268.000   10.720   10.720   0.000   0.000
0.01375   0.00825   304.611   1137.797   268.000   268.000   10.720   10.720   0.000   0.000
0.01625   0.00825   306.382   1137.797   268.000   268.000   10.720   10.720   0.000   0.000
0.01875   0.00825   308.506   1137.797   268.000   268.000   10.720   10.720   0.000   0.000
0.02125   0.00825   311.010   1137.797   268.000   268.000   10.720   10.720   0.000   0.000
0.02375   0.00825   313.920   1137.797   268.000   268.000   10.720   10.720   0.000   0.000
0.02625   0.00825   317.268   1137.797   268.000   268.000   10.720   10.720   0.000   0.000
0.02875   0.00825   321.087   1137.797   268.000   268.000   10.720   10.720   0.000   0.000
0.03125   0.00825   325.365   1137.797   268.000   268.000   10.720   10.720   0.000   0.000
0.03375   0.00825   329.269   1137.797   268.000   268.000   10.720   10.720   0.000   0.000
0.03625   0.00825   332.787   1137.797   268.000   268.000   10.720   10.720   0.000   0.000
0.03875   0.00825   335.947   1137.797   268.000   268.000   10.720   10.720   0.000   0.000
0.04125   0.00825   338.774   1137.797   268.000   268.000   10.720   10.720   0.000   0.000
0.04375   0.00825   341.288   1137.797   268.000   268.000   10.720   10.720   0.000   0.000
0.04625   0.00825   343.500   1137.797   268.000   268.000   10.720   10.720   0.000   0.000
0.04875   0.00825   345.403   1137.797   268.000   268.000   10.720   0.000   0.000   16.138
0.00125   0.00775   300.386   1137.797   268.000   268.000   0.000   10.720   0.000   0.000
0.00375   0.00775   300.658   1137.797   268.000   268.000   10.720   10.720   0.000   0.000
0.00625   0.00775   301.205   1137.797   268.000   268.000   10.720   10.720   0.000   0.000
0.00875   0.00775   302.036   1137.797   268.000   268.000   10.720   10.720   0.000   0.000
0.01125   0.00775   303.163   1137.797   268.000   268.000   10.720   10.720   0.000   0.000
0.01375   0.00775   304.602   1137.797   268.000   268.000   10.720   10.720   0.000   0.000
0.01625   0.00775   306.372   1137.797   268.000   268.000   10.720   10.720   0.000   0.000
0.01875   0.00775   308.495   1137.797   268.000   268.000   10.720   10.720   0.000   0.000
0.02125   0.00775   310.997   1137.797   268.000   268.000   10.720   10.720   0.000   0.000
0.02375   0.00775   313.905   1137.797   268.000   268.000   10.720   10.720   0.000   0.000
0.02625   0.00775   317.247   1137.797   268.000   268.000   10.720   10.720   0.000   0.000
0.02875   0.00775   321.041   1137.797   268.000   268.000   10.720   10.720   0.000   0.000
0.03125   0.00775   325.221   1137.797   268.000   268.000   10.720   10.720   0.000   0.000
0.03375   0.00775   329.102   1137.797   268.000   268.000   10.720   10.720   0.000   0.000
0.03625   0.00775   332.613   1137.797   268.000   268.000   10.720   10.720   0.000   0.000
0.03875   0.00775   335.772   1137.797   268.000   268.000   10.720   10.720   0.000   0.000
0.04125   0.00775   338.598   1137.797   268.000   268.000   10.720   10.720   0.000   0.000
0.04375   0.00775   341.111   1137.797   268.000   268.000   10.720   10.720   0.000   0.000
0.04625   0.00775   343.327   1137.797   268.000   268.000   10.720   10.720   0.000   0.000
0.04875   0.00775   345.242   1137.797   268.000   268.000   10.720   0.000   0.000   16.139
0.00125   0.00725   300.378   1137.797   268.000   268.000   0.000   10.720   0.000   0.000
0.00375   0.00725   300.649   1137.797   268.000   268.000   10.720   10.720   0.000   0.000
0.00625   0.00725   301.196   1137.797   268.000   268.000   10.720   10.720   0.000   0.000
0.00875   0.00725   302.027   1137.797   268.000   268.000   10.720   10.720   0.000   0.000
0.01125   0.00725   303.153   1137.797   268.000   268.000   10.720   10.720   0.000   0.000
0.01375   0.00725   304.590   1137.797   268.000   268.000   10.720   10.720   0.000   0.000
0.01625   0.00725   306.359   1137.797   268.000   268.000   10.720   10.720   0.000   0.000
0.01875   0.00725   308.481   1137.797   268.000   268.000   10.720   10.720   0.000   0.000
0.02125   0.00725   310.981   1137.797   268.000   268.000   10.720   10.720   0.000   0.000
0.02375   0.00725   313.886   1137.797   268.000   268.000   10.720   10.720   0.000   0.000
0.02625   0.00725   317.222   1137.797   268.000   268.000   10.720   10.720   0.000   0.000
0.02875   0.00725   320.996   1137.797   268.000   268.000   10.720   10.720   0.000   0.000
0.03125   0.00725   325.106   1137.797   268.000   268.000   10.720   10.720   0.000   0.000
0.03375   0.00725   328.966   1137.797   268.000   268.000   10.720   10.720   0.000   0.000
0.03625   0.00725   332.472   1137.797   268.000   268.000   10.720   10.720   0.000   0.000
0.03875   0.00725   335.628   1137.797   268.000   268.000   10.720   10.720   0.000   0.000
0.04125   0.00725   338.453   1137.797   268.000   268.000   10.720   10.720   0.000   0.000
0.04375   0.00725   340.966   1137.797   268.000   268.000   10.720   10.720   0.000   0.000
0.04625   0.00725   343.185   1137.797   268.000   268.000   10.720   10.720   0.000   0.000
0.04875   0.00725   345.117   1137.797   268.000   268.000   10.720   0.000   0.000   16.139
0.00125   0.00675   300.368   1137.797   268.000   268.000   0.000   10.720   0.000   0.000
0.00375   0.00675   300.639   1137.797   268.000   268.000   10.720   10.720   0.000   0.000
0.00625   0.00675   301.186   1137.797   268.000   268.000   10.720   10.720   0.000   0.000
0.00875   0.00675   302.015   1137.797   268.000   268.000   10.720   10.720   0.000   0.000
0.01125   0.00675   303.140   1137.797   268.000   268.000   10.720   10.720   0.000   0.000
0.01375   0.00675   304.577   1137.797   268.000   268.000   10.720   10.720   0.000   0.000
0.01625   0.00675   306.344   1137.797   268.000   268.000   10.720   10.720   0.000   0.000
0.01875   0.00675   308.464   1137.797   268.000   268.000   10.720   10.720   0.000   0.000
0.02125   0.00675   310.961   1137.797   268.000   268.000   10.720   10.720   0.000   0.000
0.02375   0.00675   313.864   1137.797   268.000   268.000   10.720   10.720   0.000   0.000
0.02625   0.00675   317.195   1137.797   268.000   268.000   10.720   10.720   0.000   0.000
0.02875   0.00675   320.953   1137.797   268.000   268.000   10.720   10.720   0.000   0.000
0.03125   0.00675   325.016   1137.797   268.000   268.000   10.720   10.720   0.000   0.000
0.03375   0.00675   328.861   1137.797   268.000   268.000   10.720   10.720   0.000   0.000
0.03625   0.00675   332.362   1137.797   268.000   268.000   10.720   10.720   0.000   0.000
0.03875   0.00675   335.515   1137.797   268.000   268.000   10.720   10.720   0.000   0.000
0.04125   0.00675   338.339   1137.797   268.000   268.000   10.720   10.720   0.000   0.000
0.04375   0.00675   340.851   1137.797   268.000   268.000   10.720   10.720   0.000   0.000
0.04625   0.00675   343.074   1137.797   268.000   268.000   10.720   10.720   0.000   0.000
0.04875   0.00675   345.028   1137.797   268.000   268.000   10.720   0.000   0.000   16.139
0.00125   0.00625   300.357   1137.797   268.000   2.085   0.000   10.720   0.000   0.000
0.00375   0.00625   300.627   1137.797   268.000   2.085   10.720   10.720   0.000   0.000
0.00625   0.00625   301.173   1137.797   268.000   2.085   10.720   10.720   0.000   0.000
0.00875   0.00625   302.002   1137.797   268.000   2.085   10.720   10.720   0.000   0.000
0.01125   0.00625   303.126   1137.797   268.000   2.085   10.720   10.720   0.000   0.000
0.01375   0.00625   304.561   1137.797   268.000   2.085   10.720   10.720   0.000   0.000
0.01625   0.00625   306.326   1137.797   268.000   2.085   10.720   10.720   0.000   0.000
0.01875   0.00625   308.444   1137.797   268.000   2.085   10.720   10.720   0.000   0.000
0.02125   0.00625   310.939   1137.797   268.000   2.085   10.720   10.720   0.000   0.000
0.02375   0.00625   313.838   1137.797   268.000   2.085   10.720   10.720   0.000   0.000
0.02625   0.00625   317.165   1137.797   268.000   2.085   10.720   10.720   0.000   0.000
0.02875   0.00625   320.913   1137.797   268.000   2.085   10.720   10.720   0.000   0.000
0.03125   0.00625   324.952   1137.797   268.000   2.085   10.720   10.720   0.000   0.000
0.03375   0.00625   328.786   1137.797   268.000   2.085   10.720   10.720   0.000   0.000
0.03625   0.00625   332.283   1137.797   268.000   2.085   10.720   10.720   0.000   0.000
0.03875   0.00625   335.434   1137.797   268.000   2.085   10.720   10.720   0.000   0.000
0.04125   0.00625   338.256   1137.797   268.000   2.085   10.720   10.720   0.000   0.000
0.04375   0.00625   340.768   1137.797   268.000   2.085   10.720   10.720   0.000   0.000
0.04625   0.00625   342.993   1137.797   268.000   2.085   10.720   10.720   0.000   0.000
0.04875   0.00625   344.977   1137.797   268.000   2.085   10.720   0.000   0.000   16.140
0.00125   0.00575   298.671   686.719   2.085   1.046   0.000   0.042   0.000   0.000
0.00375   0.00575   298.898   686.719   2.085   1.046   0.042   0.042   0.000   0.000
0.00625   0.00575   299.357   686.719   2.085   1.046   0.042   0.042   0.000   0.000
0.00875   0.00575   300.054   686.719   2.085   1.046   0.042   0.042   0.000   0.000
0.01125   0.00575   301.002   686.719   2.085   1.046   0.042   0.042   0.000   0.000
0.01375   0.00575   302.216   686.719   2.085   1.046   0.042   0.042   0.000   0.000
0.01625   0.00575   303.716   686.719   2.085   1.046   0.042   0.042   0.000   0.000
0.01875   0.00575   305.522   686.719   2.085   1.046   0.042   0.042   0.000   0.000
0.02125   0.00575   307.660   686.719   2.085   1.046   0.042   0.042   0.000   0.000
0.02375   0.00575   310.156   686.719   2.085   1.046   0.042   0.042   0.000   0.000
0.02625   0.00575   313.031   686.719   2.085   1.046   0.042   0.042   0.000   0.000
0.02875   0.00575   316.283   686.719   2.085   1.046   0.042   0.042   0.000   0.000
0.03125   0.00575   319.794   686.719   2.085   1.046   0.042   0.042   0.000   0.000
0.03375   0.00575   323.153   686.719   2.085   1.046   0.042   0.042   0.000   0.000
0.03625   0.00575   326.240   686.719   2.085   1.046   0.042   0.042   0.000   0.000
0.03875   0.00575   329.048   686.719   2.085   1.046   0.042   0.042   0.000   0.000
0.04125   0.00575   331.596   686.719   2.085   1.046   0.042   0.042   0.000   0.000
0.04375   0.00575   333.918   686.719   2.085   1.046   0.042   0.042   0.000   0.000
0.04625   0.00575   336.276   686.719   2.085   1.046   0.042   0.042   0.000   0.000
0.04875   0.00575   343.343   686.719   2.085   1.046   0.042   0.000   0.000   6.055
0.00125   0.00525   296.510   686.719   1.046   1.046   0.000   0.042   0.000   0.000
0.00375   0.00525   296.669   686.719   1.046   1.046   0.042   0.042   0.000   0.000
0.00625   0.00525   296.990   686.719   1.046   1.046   0.042   0.042   0.000   0.000
0.00875   0.00525   297.481   686.719   1.046   1.046   0.042   0.042   0.000   0.000
0.01125   0.00525   298.151   686.719   1.046   1.046   0.042   0.042   0.000   0.000
0.01375   0.00525   299.013   686.719   1.046   1.046   0.042   0.042   0.000   0.000
0.01625   0.00525   300.085   686.719   1.046   1.046   0.042   0.042   0.000   0.000
0.01875   0.00525   301.384   686.719   1.046   1.046   0.042   0.042   0.000   0.000
0.02125   0.00525   302.931   686.719   1.046   1.046   0.042   0.042   0.000   0.000
0.02375   0.00525   304.750   686.719   1.046   1.046   0.042   0.042   0.000   0.000
0.02625   0.00525   306.859   686.719   1.046   1.046   0.042   0.042   0.000   0.000
0.02875   0.00525   309.258   686.719   1.046   1.046   0.042   0.042   0.000   0.000
0.03125   0.00525   311.863   686.719   1.046   1.046   0.042   0.042   0.000   0.000
0.03375   0.00525   314.398   686.719   1.046   1.046   0.042   0.042   0.000   0.000
0.03625   0.00525   316.779   686.719   1.046   1.046   0.042   0.042   0.000   0.000
0.03875   0.00525   319.004   686.719   1.046   1.046   0.042   0.042   0.000   0.000
0.04125   0.00525   321.088   686.719   1.046   1.046   0.042   0.042   0.000   0.000
0.04375   0.00525   323.084   686.719   1.046   1.046   0.042   0.042   0.000   0.000
0.04625   0.00525   325.567   686.719   1.046   1.046   0.042   0.042   0.000   0.000
0.04875   0.00525   337.466   686.719   1.046   1.046   0.042   0.000   0.000   6.062
0.00125   0.00475   295.205   686.719   1.046   1.046   0.000   0.042   0.000   0.000
0.00375   0.00475   295.313   686.719   1.046   1.046   0.042   0.042   0.000   0.000
0.00625   0.00475   295.533   686.719   1.046   1.046   0.042   0.042   0.000   0.000
0.00875   0.00475   295.868   686.719   1.046   1.046   0.042   0.042   0.000   0.000
0.01125   0.00475   296.327   686.719   1.046   1.046   0.042   0.042   0.000   0.000
0.01375   0.00475   296.919   686.719   1.046   1.046   0.042   0.042   0.000   0.000
0.01625   0.00475   297.657   686.719   1.046   1.046   0.042   0.042   0.000   0.000
0.01875   0.00475   298.555   686.719   1.046   1.046   0.042   0.042   0.000   0.000
0.02125   0.00475   299.627   686.719   1.046   1.046   0.042   0.042   0.000   0.000
0.02375   0.00475   300.891   686.719   1.046   1.046   0.042   0.042   0.000   0.000
0.02625   0.00475   302.361   686.719   1.046   1.046   0.042   0.042   0.000   0.000
0.02875   0.00475   304.038   686.719   1.046   1.046   0.042   0.042   0.000   0.000
0.03125   0.00475   305.873   686.719   1.046   1.046   0.042   0.042   0.000   0.000
0.03375   0.00475   307.709   686.719   1.046   1.046   0.042   0.042   0.000   0.000
0.03625   0.00475   309.496   686.719   1.046   1.046   0.042   0.042   0.000   0.000
0.03875   0.00475   311.233   686.719   1.046   1.046   0.042   0.042   0.000   0.000
0.04125   0.00475   312.936   686.719   1.046   1.046   0.042   0.042   0.000   0.000
0.04375   0.00475   314.650   686.719   1.046   1.046   0.042   0.042   0.000   0.000
0.04625   0.00475   316.948   686.719   1.046   1.046   0.042   0.042   0.000   0.000
0.04875   0.00475   328.764   686.719   1.046   1.046   0.042   0.000   0.000   6.073
0.00125   0.00425   294.507   686.719   1.046   2.085   0.000   0.042   0.000   0.000
0.00375   0.00425   294.579   686.719   1.046   2.085   0.042   0.042   0.000   0.000
0.00625   0.00425   294.724   686.719   1.046   2.085   0.042   0.042   0.000   0.000
0.00875   0.00425   294.946   686.719   1.046   2.085   0.042   0.042   0.000   0.000
0.01125   0.00425   295.249   686.719   1.046   2.085   0.042   0.042   0.000   0.000
0.01375   0.00425   295.638   686.719   1.046   2.085   0.042   0.042   0.000   0.000
0.01625   0.00425   296.121   686.719   1.046   2.085   0.042   0.042   0.000   0.000
0.01875   0.00425   296.704   686.719   1.046   2.085   0.042   0.042   0.000   0.000
0.02125   0.00425   297.397   686.719   1.046   2.085   0.042   0.042   0.000   0.000
0.02375   0.00425   298.208   686.719   1.046   2.085   0.042   0.042   0.000   0.000
0.02625   0.00425   299.144   686.719   1.046   2.085   0.042   0.042   0.000   0.000
0.02875   0.00425   300.208   686.719   1.046   2.085   0.042   0.042   0.000   0.000
0.03125   0.00425   301.386   686.719   1.046   2.085   0.042   0.042   0.000   0.000
0.03375   0.00425   302.625   686.719   1.046   2.085   0.042   0.042   0.000   0.000
0.03625   0.00425   303.912   686.719   1.046   2.085   0.042   0.042   0.000   0.000
0.03875   0.00425   305.247   686.719   1.046   2.085   0.042   0.042   0.000   0.000
0.04125   0.00425   306.637   686.719   1.046   2.085   0.042   0.042   0.000   0.000
0.04375   0.00425   308.104   686.719   1.046   2.085   0.042   0.042   0.000   0.000
0.04625   0.00425   309.901   686.719   1.046   2.085   0.042   0.042   0.000   0.000
0.04875   0.00425   316.705   686.719   1.046   2.085   0.042   0.000   0.000   6.087
0.00125   0.00375   294.374   1137.797   2.085   268.000   0.000   10.720   0.000   0.000
0.00375   0.00375   294.433   1137.797   2.085   268.000   10.720   10.720   0.000   0.000
0.00625   0.00375   294.551   1137.797   2.085   268.000   10.720   10.720   0.000   0.000
0.00875   0.00375   294.731   1137.797   2.085   268.000   10.720   10.720   0.000   0.000
0.01125   0.00375   294.975   1137.797   2.085   268.000   10.720   10.720   0.000   0.000
0.01375   0.00375   295.285   1137.797   2.085   268.000   10.720   10.720   0.000   0.000
0.01625   0.00375   295.667   1137.797   2.085   268.000   10.720   10.720   0.000   0.000
0.01875   0.00375   296.123   1137.797   2.085   268.000   10.720   10.720   0.000   0.000
0.02125   0.00375   296.658   1137.797   2.085   268.000   10.720   10.720   0.000   0.000
0.02375   0.00375   297.277   1137.797   2.085   268.000   10.720   10.720   0.000   0.000
0.02625   0.00375   297.981   1137.797   2.085   268.000   10.720   10.720   0.000   0.000
0.02875   0.00375   298.775   1137.797   2.085   268.000   10.720   10.720   0.000   0.000
0.03125   0.00375   299.660   1137.797   2.085   268.000   10.720   10.720   0.000   0.000
0.03375   0.00375   300.635   1137.797   2.085   268.000   10.720   10.720   0.000   0.000
0.03625   0.00375   301.702   1137.797   2.085   268.000   10.720   10.720   0.000   0.000
0.03875   0.00375   302.863   1137.797   2.085   268.000   10.720   10.720   0.000   0.000
0.04125   0.00375   304.120   1137.797   2.085   268.000   10.720   10.720   0.000   0.000
0.04375   0.00375   305.476   1137.797   2.085   268.000   10.720   10.720   0.000   0.000
0.04625   0.00375   306.942   1137.797   2.085   268.000   10.720   10.720   0.000   0.000
0.04875   0.00375   308.554   1137.797   2.085   268.000   10.720   0.000   0.000   16.255
0.00125   0.00325   294.373   1137.797   268.000   268.000   0.000   10.720   0.000   0.000
0.00375   0.00325   294.432   1137.797   268.000   268.000   10.720   10.720   0.000   0.000
0.00625   0.00325   294.550   1137.797   268.000   268.000   10.720   10.720   0.000   0.000
0.00875   0.00325   294.730   1137.797   268.000   268.000   10.720   10.720   0.000   0.000
0.01125   0.00325   294.973   1137.797   268.000   268.000   10.720   10.720   0.000   0.000
0.01375   0.00325   295.283   1137.797   268.000   268.000   10.720   10.720   0.000   0.000
0.01625   0.00325   295.664   1137.797   268.000   268.000   10.720   10.720   0.000   0.000
0.01875   0.00325   296.119   1137.797   268.000   268.000   10.720   10.720   0.000   0.000
0.02125   0.00325   296.653   1137.797   268.000   268.000   10.720   10.720   0.000   0.000
0.02375   0.00325   297.270   1137.797   268.000   268.000   10.720   10.720   0.000   0.000
0.02625   0.00325   297.973   1137.797   268.000   268.000   10.720   10.720   0.000   0.000
0.02875   0.00325   298.765   1137.797   268.000   268.000   10.720   10.720   0.000   0.000
0.03125   0.00325   299.648   1137.797   268.000   268.000   10.720   10.720   0.000   0.000
0.03375   0.00325   300.622   1137.797   268.000   268.000   10.720   10.720   0.000   0.000
0.03625   0.00325   301.687   1137.797   268.000   268.000   10.720   10.720   0.000   0.000
0.03875   0.00325   302.847   1137.797   268.000   268.000   10.720   10.720   0.000   0.000
0.04125   0.00325   304.103   1137.797   268.000   268.000   10.720   10.720   0.000   0.000
0.04375   0.00325   305.458   1137.797   268.000   268.000   10.720   10.720   0.000   0.000
0.04625   0.00325   306.919   1137.797   268.000   268.000   10.720   10.720   0.000   0.000
0.04875   0.00325   308.502   1137.797   268.000   268.000   10.720   0.000   0.000   16.255
0.00125   0.00275   294.373   1137.797   268.000   268.000   0.000   10.720   0.000   0.000
0.00375   0.00275   294.431   1137.797   268.000   268.000   10.720   10.720   0.000   0.000
0.00625   0.00275   294.549   1137.797   268.000   268.000   10.720   10.720   0.000   0.000
0.00875   0.00275   294.728   1137.797   268.000   268.000   10.720   10.720   0.000   0.000
0.01125   0.00275   294.971   1137.797   268.000   268.000   10.720   10.720   0.000   0.000
0.01375   0.00275   295.281   1137.797   268.000   268.000   10.720   10.720   0.000   0.000
0.01625   0.00275   295.661   1137.797   268.000   268.000   10.720   10.720   0.000   0.000
0.01875   0.00275   296.116   1137.797   268.000   268.000   10.720   10.720   0.000   0.000
0.02125   0.00275   296.649   1137.797   268.000   268.000   10.720   10.720   0.000   0.000
0.02375   0.00275   297.265   1137.797   268.000   268.000   10.720   10.720   0.000   0.000
0.02625   0.00275   297.967   1137.797   268.000   268.000   10.720   10.720   0.000   0.000
0.02875   0.00275   298.757   1137.797   268.000   268.000   10.720   10.720   0.000   0.000
0.03125   0.00275   299.638   1137.797   268.000   268.000   10.720   10.720   0.000   0.000
0.03375   0.00275   300.610   1137.797   268.000   268.000   10.720   10.720   0.000   0.000
0.03625   0.00275   301.674   1137.797   268.000   268.000   10.720   10.720   0.000   0.000
0.03875   0.00275   302.833   1137.797   268.000   268.000   10.720   10.720   0.000   0.000
0.04125   0.00275   304.088   1137.797   268.000   268.000   10.720   10.720   0.000   0.000
0.04375   0.00275   305.442   1137.797   268.000   268.000   10.720   10.720   0.000   0.000
0.04625   0.00275   306.899   1137.797   268.000   268.000   10.720   10.720   0.000   0.000
0.04875   0.00275   308.458   1137.797   268.000   268.000   10.720   0.000   0.000   16.255
0.00125   0.00225   294.372   1137.797   268.000   268.000   0.000   10.720   0.000   0.000
0.00375   0.00225   294.430   1137.797   268.000   268.000   10.720   10.720   0.000   0.000
0.00625   0.00225   294.548   1137.797   268.000   268.000   10.720   10.720   0.000   0.000
0.00875   0.00225   294.727   1137.797   268.000   268.000   10.720   10.720   0.000   0.000
0.01125   0.00225   294.970   1137.797   268.000   268.000   10.720   10.720   0.000   0.000
0.01375   0.00225   295.279   1137.797   268.000   268.000   10.720   10.720   0.000   0.000
0.01625   0.00225   295.659   1137.797   268.000   268.000   10.720   10.720   0.000   0.000
0.01875   0.00225   296.113   1137.797   268.000   268.000   10.720   10.720   0.000   0.000
0.02125   0.00225   296.645   1137.797   268.000   268.000   10.720   10.720   0.000   0.000
0.02375   0.00225   297.260   1137.797   268.000   268.000   10.720   10.720   0.000   0.000
0.02625   0.00225   297.961   1137.797   268.000   268.000   10.720   10.720   0.000   0.000
0.02875   0.00225   298.750   1137.797   268.000   268.000   10.720   10.720   0.000   0.000
0.03125   0.00225   299.630   1137.797   268.000   268.000   10.720   10.720   0.000   0.000
0.03375   0.00225   300.600   1137.797   268.000   268.000   10.720   10.720   0.000   0.000
0.03625   0.00225   301.664   1137.797   268.000   268.000   10.720   10.720   0.000   0.000
0.03875   0.00225   302.822   1137.797   268.000   268.000   10.720   10.720   0.000   0.000
0.04125   0.00225   304.076   1137.797   268.000   268.000   10.720   10.720   0.000   0.000
0.04375   0.00225   305.428   1137.797   268.000   268.000   10.720   10.720   0.000   0.000
0.04625   0.00225   306.881   1137.797   268.000   268.000   10.720   10.720   0.000   0.000
0.04875   0.00225   308.423   1137.797   268.000   268.000   10.720   0.000   0.000   16.256
0.00125   0.00175   294.371   1137.797   268.000   268.000   0.000   10.720   0.000   0.000
0.00375   0.00175   294.430   1137.797   268.000   268.000   10.720   10.720   0.000   0.000
0.00625   0.00175   294.548   1137.797   268.000   268.000   10.720   10.720   0.000   0.000
0.00875   0.00175   294.726   1137.797   268.000   268.000   10.720   10.720   0.000   0.000
0.01125   0.00175   294.969   1137.797   268.000   268.000   10.720   10.720   0.000   0.000
0.01375   0.00175   295.278   1137.797   268.000   268.000   10.720   10.720   0.000   0.000
0.01625   0.00175   295.657   1137.797   268.000   268.000   10.720   10.720   0.000   0.000
0.01875   0.00175   296.111   1137.797   268.000   268.000   10.720   10.720   0.000   0.000
0.02125   0.00175   296.643   1137.797   268.000   268.000   10.720   10.720   0.000   0.000