VARIABLES = X, Y, T, ap,an,as,aw,ae,sp,su
ZONE I=20,J=20, F=POINT,t="1.472"
0.00125   0.00975   293.000   1137.797   0.000   268.000   0.000   10.720   0.000   -0.000
0.00375   0.00975   293.000   1137.797   0.000   268.000   10.720   10.720   0.000   -0.000
0.00625   0.00975   293.000   1137.797   0.000   268.000   10.720   10.720   0.000   -0.000
0.00875   0.00975   293.000   1137.797   0.000   268.000   10.720   10.720   0.000   -0.000
0.01125   0.00975   293.002   1137.797   0.000   268.000   10.720   10.720   0.000   -0.000
0.01375   0.00975   293.005   1137.797   0.000   268.000   10.720   10.720   0.000   -0.000
0.01625   0.00975   293.015   1137.797   0.000   268.000   10.720   10.720   0.000   -0.000
0.01875   0.00975   293.043   1137.797   0.000   268.000   10.720   10.720   0.000   -0.000
0.02125   0.00975   293.110   1137.797   0.000   268.000   10.720   10.720   0.000   -0.000
0.02375   0.00975   293.261   1137.797   0.000   268.000   10.720   10.720   0.000   -0.000
0.02625   0.00975   293.578   1137.797   0.000   268.000   10.720   10.720   0.000   -0.000
0.02875   0.00975   294.214   1137.797   0.000   268.000   10.720   10.720   0.000   -0.001
0.03125   0.00975   295.691   1137.797   0.000   268.000   10.720   10.720   0.000   81.435
0.03375   0.00975   296.341   1137.797   0.000   268.000   10.720   10.720   0.000   81.427
0.03625   0.00975   296.695   1137.797   0.000   268.000   10.720   10.720   0.000   81.422
0.03875   0.00975   296.937   1137.797   0.000   268.000   10.720   10.720   0.000   81.419
0.04125   0.00975   297.201   1137.797   0.000   268.000   10.720   10.720   0.000   81.416
0.04375   0.00975   297.613   1137.797   0.000   268.000   10.720   10.720   0.000   81.411
0.04625   0.00975   298.301   1137.797   0.000   268.000   10.720   10.720   0.000   81.402
0.04875   0.00975   299.377   1137.797   0.000   268.000   10.720   0.000   0.000   97.667
0.00125   0.00925   293.000   1137.797   268.000   268.000   0.000   10.720   0.000   0.000
0.00375   0.00925   293.000   1137.797   268.000   268.000   10.720   10.720   0.000   0.000
0.00625   0.00925   293.000   1137.797   268.000   268.000   10.720   10.720   0.000   0.000
0.00875   0.00925   293.000   1137.797   268.000   268.000   10.720   10.720   0.000   0.000
0.01125   0.00925   293.002   1137.797   268.000   268.000   10.720   10.720   0.000   0.000
0.01375   0.00925   293.005   1137.797   268.000   268.000   10.720   10.720   0.000   0.000
0.01625   0.00925   293.015   1137.797   268.000   268.000   10.720   10.720   0.000   0.000
0.01875   0.00925   293.043   1137.797   268.000   268.000   10.720   10.720   0.000   0.000
0.02125   0.00925   293.110   1137.797   268.000   268.000   10.720   10.720   0.000   0.000
0.02375   0.00925   293.261   1137.797   268.000   268.000   10.720   10.720   0.000   0.000
0.02625   0.00925   293.575   1137.797   268.000   268.000   10.720   10.720   0.000   0.000
0.02875   0.00925   294.196   1137.797   268.000   268.000   10.720   10.720   0.000   0.000
0.03125   0.00925   295.442   1137.797   268.000   268.000   10.720   10.720   0.000   0.000
0.03375   0.00925   296.076   1137.797   268.000   268.000   10.720   10.720   0.000   0.000
0.03625   0.00925   296.428   1137.797   268.000   268.000   10.720   10.720   0.000   0.000
0.03875   0.00925   296.669   1137.797   268.000   268.000   10.720   10.720   0.000   0.000
0.04125   0.00925   296.933   1137.797   268.000   268.000   10.720   10.720   0.000   0.000
0.04375   0.00925   297.345   1137.797   268.000   268.000   10.720   10.720   0.000   0.000
0.04625   0.00925   298.033   1137.797   268.000   268.000   10.720   10.720   0.000   0.000
0.04875   0.00925   299.110   1137.797   268.000   268.000   10.720   0.000   0.000   16.279
0.00125   0.00875   293.000   1137.797   268.000   268.000   0.000   10.720   0.000   0.000
0.00375   0.00875   293.000   1137.797   268.000   268.000   10.720   10.720   0.000   0.000
0.00625   0.00875   293.000   1137.797   268.000   268.000   10.720   10.720   0.000   0.000
0.00875   0.00875   293.000   1137.797   268.000   268.000   10.720   10.720   0.000   0.000
0.01125   0.00875   293.002   1137.797   268.000   268.000   10.720   10.720   0.000   0.000
0.01375   0.00875   293.005   1137.797   268.000   268.000   10.720   10.720   0.000   0.000
0.01625   0.00875   293.015   1137.797   268.000   268.000   10.720   10.720   0.000   0.000
0.01875   0.00875   293.042   1137.797   268.000   268.000   10.720   10.720   0.000   0.000
0.02125   0.00875   293.109   1137.797   268.000   268.000   10.720   10.720   0.000   0.000
0.02375   0.00875   293.260   1137.797   268.000   268.000   10.720   10.720   0.000   0.000
0.02625   0.00875   293.570   1137.797   268.000   268.000   10.720   10.720   0.000   0.000
0.02875   0.00875   294.169   1137.797   268.000   268.000   10.720   10.720   0.000   0.000
0.03125   0.00875   295.238   1137.797   268.000   268.000   10.720   10.720   0.000   0.000
0.03375   0.00875   295.849   1137.797   268.000   268.000   10.720   10.720   0.000   0.000
0.03625   0.00875   296.197   1137.797   268.000   268.000   10.720   10.720   0.000   0.000
0.03875   0.00875   296.438   1137.797   268.000   268.000   10.720   10.720   0.000   0.000
0.04125   0.00875   296.701   1137.797   268.000   268.000   10.720   10.720   0.000   0.000
0.04375   0.00875   297.113   1137.797   268.000   268.000   10.720   10.720   0.000   0.000
0.04625   0.00875   297.801   1137.797   268.000   268.000   10.720   10.720   0.000   0.000
0.04875   0.00875   298.879   1137.797   268.000   268.000   10.720   0.000   0.000   16.280
0.00125   0.00825   293.000   1137.797   268.000   268.000   0.000   10.720   0.000   0.000
0.00375   0.00825   293.000   1137.797   268.000   268.000   10.720   10.720   0.000   0.000
0.00625   0.00825   293.000   1137.797   268.000   268.000   10.720   10.720   0.000   0.000
0.00875   0.00825   293.000   1137.797   268.000   268.000   10.720   10.720   0.000   0.000
0.01125   0.00825   293.002   1137.797   268.000   268.000   10.720   10.720   0.000   0.000
0.01375   0.00825   293.005   1137.797   268.000   268.000   10.720   10.720   0.000   0.000
0.01625   0.00825   293.015   1137.797   268.000   268.000   10.720   10.720   0.000   0.000
0.01875   0.00825   293.042   1137.797   268.000   268.000   10.720   10.720   0.000   0.000
0.02125   0.00825   293.109   1137.797   268.000   268.000   10.720   10.720   0.000   0.000
0.02375   0.00825   293.258   1137.797   268.000   268.000   10.720   10.720   0.000   0.000
0.02625   0.00825   293.564   1137.797   268.000   268.000   10.720   10.720   0.000   0.000
0.02875   0.00825   294.138   1137.797   268.000   268.000   10.720   10.720   0.000   0.000
0.03125   0.00825   295.074   1137.797   268.000   268.000   10.720   10.720   0.000   0.000
0.03375   0.00825   295.660   1137.797   268.000   268.000   10.720   10.720   0.000   0.000
0.03625   0.00825   296.004   1137.797   268.000   268.000   10.720   10.720   0.000   0.000
0.03875   0.00825   296.243   1137.797   268.000   268.000   10.720   10.720   0.000   0.000
0.04125   0.00825   296.506   1137.797   268.000   268.000   10.720   10.720   0.000   0.000
0.04375   0.00825   296.917   1137.797   268.000   268.000   10.720   10.720   0.000   0.000
0.04625   0.00825   297.605   1137.797   268.000   268.000   10.720   10.720   0.000   0.000
0.04875   0.00825   298.685   1137.797   268.000   268.000   10.720   0.000   0.000   16.280
0.00125   0.00775   293.000   1137.797   268.000   268.000   0.000   10.720   0.000   0.000
0.00375   0.00775   293.000   1137.797   268.000   268.000   10.720   10.720   0.000   0.000
0.00625   0.00775   293.000   1137.797   268.000   268.000   10.720   10.720   0.000   0.000
0.00875   0.00775   293.000   1137.797   268.000   268.000   10.720   10.720   0.000   0.000
0.01125   0.00775   293.002   1137.797   268.000   268.000   10.720   10.720   0.000   0.000
0.01375   0.00775   293.005   1137.797   268.000   268.000   10.720   10.720   0.000   0.000
0.01625   0.00775   293.015   1137.797   268.000   268.000   10.720   10.720   0.000   0.000
0.01875   0.00775   293.042   1137.797   268.000   268.000   10.720   10.720   0.000   0.000
0.02125   0.00775   293.108   1137.797   268.000   268.000   10.720   10.720   0.000   0.000
0.02375   0.00775   293.257   1137.797   268.000   268.000   10.720   10.720   0.000   0.000
0.02625   0.00775   293.558   1137.797   268.000   268.000   10.720   10.720   0.000   0.000
0.02875   0.00775   294.108   1137.797   268.000   268.000   10.720   10.720   0.000   0.000
0.03125   0.00775   294.946   1137.797   268.000   268.000   10.720   10.720   0.000   0.000
0.03375   0.00775   295.508   1137.797   268.000   268.000   10.720   10.720   0.000   0.000
0.03625   0.00775   295.847   1137.797   268.000   268.000   10.720   10.720   0.000   0.000
0.03875   0.00775   296.085   1137.797   268.000   268.000   10.720   10.720   0.000   0.000
0.04125   0.00775   296.347   1137.797   268.000   268.000   10.720   10.720   0.000   0.000
0.04375   0.00775   296.757   1137.797   268.000   268.000   10.720   10.720   0.000   0.000
0.04625   0.00775   297.444   1137.797   268.000   268.000   10.720   10.720   0.000   0.000
0.04875   0.00775   298.527   1137.797   268.000   268.000   10.720   0.000   0.000   16.281
0.00125   0.00725   293.000   1137.797   268.000   268.000   0.000   10.720   0.000   0.000
0.00375   0.00725   293.000   1137.797   268.000   268.000   10.720   10.720   0.000   0.000
0.00625   0.00725   293.000   1137.797   268.000   268.000   10.720   10.720   0.000   0.000
0.00875   0.00725   293.000   1137.797   268.000   268.000   10.720   10.720   0.000   0.000
0.01125   0.00725   293.002   1137.797   268.000   268.000   10.720   10.720   0.000   0.000
0.01375   0.00725   293.005   1137.797   268.000   268.000   10.720   10.720   0.000   0.000
0.01625   0.00725   293.015   1137.797   268.000   268.000   10.720   10.720   0.000   0.000
0.01875   0.00725   293.042   1137.797   268.000   268.000   10.720   10.720   0.000   0.000
0.02125   0.00725   293.108   1137.797   268.000   268.000   10.720   10.720   0.000   0.000
0.02375   0.00725   293.255   1137.797   268.000   268.000   10.720   10.720   0.000   0.000
0.02625   0.00725   293.551   1137.797   268.000   268.000   10.720   10.720   0.000   0.000
0.02875   0.00725   294.081   1137.797   268.000   268.000   10.720   10.720   0.000   0.000
0.03125   0.00725   294.849   1137.797   268.000   268.000   10.720   10.720   0.000   0.000
0.03375   0.00725   295.392   1137.797   268.000   268.000   10.720   10.720   0.000   0.000
0.03625   0.00725   295.726   1137.797   268.000   268.000   10.720   10.720   0.000   0.000
0.03875   0.00725   295.962   1137.797   268.000   268.000   10.720   10.720   0.000   0.000
0.04125   0.00725   296.223   1137.797   268.000   268.000   10.720   10.720   0.000   0.000
0.04375   0.00725   296.632   1137.797   268.000   268.000   10.720   10.720   0.000   0.000
0.04625   0.00725   297.319   1137.797   268.000   268.000   10.720   10.720   0.000   0.000
0.04875   0.00725   298.406   1137.797   268.000   268.000   10.720   0.000   0.000   16.281
0.00125   0.00675   293.000   1137.797   268.000   268.000   0.000   10.720   0.000   0.000
0.00375   0.00675   293.000   1137.797   268.000   268.000   10.720   10.720   0.000   0.000
0.00625   0.00675   293.000   1137.797   268.000   268.000   10.720   10.720   0.000   0.000
0.00875   0.00675   293.000   1137.797   268.000   268.000   10.720   10.720   0.000   0.000
0.01125   0.00675   293.002   1137.797   268.000   268.000   10.720   10.720   0.000   0.000
0.01375   0.00675   293.005   1137.797   268.000   268.000   10.720   10.720   0.000   0.000
0.01625   0.00675   293.015   1137.797   268.000   268.000   10.720   10.720   0.000   0.000
0.01875   0.00675   293.042   1137.797   268.000   268.000   10.720   10.720   0.000   0.000
0.02125   0.00675   293.107   1137.797   268.000   268.000   10.720   10.720   0.000   0.000
0.02375   0.00675   293.253   1137.797   268.000   268.000   10.720   10.720   0.000   0.000
0.02625   0.00675   293.546   1137.797   268.000   268.000   10.720   10.720   0.000   0.000
0.02875   0.00675   294.061   1137.797   268.000   268.000   10.720   10.720   0.000   0.000
0.03125   0.00675   294.783   1137.797   268.000   268.000   10.720   10.720   0.000   0.000
0.03375   0.00675   295.311   1137.797   268.000   268.000   10.720   10.720   0.000   0.000
0.03625   0.00675   295.641   1137.797   268.000   268.000   10.720   10.720   0.000   0.000
0.03875   0.00675   295.876   1137.797   268.000   268.000   10.720   10.720   0.000   0.000
0.04125   0.00675   296.135   1137.797   268.000   268.000   10.720   10.720   0.000   0.000
0.04375   0.00675   296.543   1137.797   268.000   268.000   10.720   10.720   0.000   0.000
0.04625   0.00675   297.228   1137.797   268.000   268.000   10.720   10.720   0.000   0.000
0.04875   0.00675   298.322   1137.797   268.000   268.000   10.720   0.000   0.000   16.281
0.00125   0.00625   293.000   1137.797   268.000   2.085   0.000   10.720   0.000   0.000
0.00375   0.00625   293.000   1137.797   268.000   2.085   10.720   10.720   0.000   0.000
0.00625   0.00625   293.000   1137.797   268.000   2.085   10.720   10.720   0.000   0.000
0.00875   0.00625   293.000   1137.797   268.000   2.085   10.720   10.720   0.000   0.000
0.01125   0.00625   293.002   1137.797   268.000   2.085   10.720   10.720   0.000   0.000
0.01375   0.00625   293.005   1137.797   268.000   2.085   10.720   10.720   0.000   0.000
0.01625   0.00625   293.015   1137.797   268.000   2.085   10.720   10.720   0.000   0.000
0.01875   0.00625   293.042   1137.797   268.000   2.085   10.720   10.720   0.000   0.000
0.02125   0.00625   293.107   1137.797   268.000   2.085   10.720   10.720   0.000   0.000
0.02375   0.00625   293.251   1137.797   268.000   2.085   10.720   10.720   0.000   0.000
0.02625   0.00625   293.541   1137.797   268.000   2.085   10.720   10.720   0.000   0.000
0.02875   0.00625   294.048   1137.797   268.000   2.085   10.720   10.720   0.000   0.000
0.03125   0.00625   294.746   1137.797   268.000   2.085   10.720   10.720   0.000   0.000
0.03375   0.00625   295.265   1137.797   268.000   2.085   10.720   10.720   0.000   0.000
0.03625   0.00625   295.591   1137.797   268.000   2.085   10.720   10.720   0.000   0.000
0.03875   0.00625   295.825   1137.797   268.000   2.085   10.720   10.720   0.000   0.000
0.04125   0.00625   296.083   1137.797   268.000   2.085   10.720   10.720   0.000   0.000
0.04375   0.00625   296.489   1137.797   268.000   2.085   10.720   10.720   0.000   0.000
0.04625   0.00625   297.173   1137.797   268.000   2.085   10.720   10.720   0.000   0.000
0.04875   0.00625   298.275   1137.797   268.000   2.085   10.720   0.000   0.000   16.281
0.00125   0.00575   293.000   686.719   2.085   1.046   0.000   0.042   0.000   0.000
0.00375   0.00575   293.000   686.719   2.085   1.046   0.042   0.042   0.000   0.000
0.00625   0.00575   293.000   686.719   2.085   1.046   0.042   0.042   0.000   0.000
0.00875   0.00575   293.000   686.719   2.085   1.046   0.042   0.042   0.000   0.000
0.01125   0.00575   293.000   686.719   2.085   1.046   0.042   0.042   0.000   0.000
0.01375   0.00575   293.001   686.719   2.085   1.046   0.042   0.042   0.000   0.000
0.01625   0.00575   293.003   686.719   2.085   1.046   0.042   0.042   0.000   0.000
0.01875   0.00575   293.008   686.719   2.085   1.046   0.042   0.042   0.000   0.000
0.02125   0.00575   293.023   686.719   2.085   1.046   0.042   0.042   0.000   0.000
0.02375   0.00575   293.062   686.719   2.085   1.046   0.042   0.042   0.000   0.000
0.02625   0.00575   293.150   686.719   2.085   1.046   0.042   0.042   0.000   0.000
0.02875   0.00575   293.324   686.719   2.085   1.046   0.042   0.042   0.000   0.000
0.03125   0.00575   293.582   686.719   2.085   1.046   0.042   0.042   0.000   0.000
0.03375   0.00575   293.759   686.719   2.085   1.046   0.042   0.042   0.000   0.000
0.03625   0.00575   293.855   686.719   2.085   1.046   0.042   0.042   0.000   0.000
0.03875   0.00575   293.915   686.719   2.085   1.046   0.042   0.042   0.000   0.000
0.04125   0.00575   293.985   686.719   2.085   1.046   0.042   0.042   0.000   0.000
0.04375   0.00575   294.116   686.719   2.085   1.046   0.042   0.042   0.000   0.000
0.04625   0.00575   294.404   686.719   2.085   1.046   0.042   0.042   0.000   0.000
0.04875   0.00575   296.999   686.719   2.085   1.046   0.042   0.000   0.000   6.107
0.00125   0.00525   293.000   686.719   1.046   1.046   0.000   0.042   0.000   0.000
0.00375   0.00525   293.000   686.719   1.046   1.046   0.042   0.042   0.000   0.000
0.00625   0.00525   293.000   686.719   1.046   1.046   0.042   0.042   0.000   0.000
0.00875   0.00525   293.000   686.719   1.046   1.046   0.042   0.042   0.000   0.000
0.01125   0.00525   293.000   686.719   1.046   1.046   0.042   0.042   0.000   0.000
0.01375   0.00525   293.000   686.719   1.046   1.046   0.042   0.042   0.000   0.000
0.01625   0.00525   293.000   686.719   1.046   1.046   0.042   0.042   0.000   0.000
0.01875   0.00525   293.001   686.719   1.046   1.046   0.042   0.042   0.000   0.000
0.02125   0.00525   293.002   686.719   1.046   1.046   0.042   0.042   0.000   0.000
0.02375   0.00525   293.007   686.719   1.046   1.046   0.042   0.042   0.000   0.000
0.02625   0.00525   293.019   686.719   1.046   1.046   0.042   0.042   0.000   0.000
0.02875   0.00525   293.045   686.719   1.046   1.046   0.042   0.042   0.000   0.000
0.03125   0.00525   293.087   686.719   1.046   1.046   0.042   0.042   0.000   0.000
0.03375   0.00525   293.113   686.719   1.046   1.046   0.042   0.042   0.000   0.000
0.03625   0.00525   293.126   686.719   1.046   1.046   0.042   0.042   0.000   0.000
0.03875   0.00525   293.133   686.719   1.046   1.046   0.042   0.042   0.000   0.000
0.04125   0.00525   293.142   686.719   1.046   1.046   0.042   0.042   0.000   0.000
0.04375   0.00525   293.163   686.719   1.046   1.046   0.042   0.042   0.000   0.000
0.04625   0.00525   293.246   686.719   1.046   1.046   0.042   0.042   0.000   0.000
0.04875   0.00525   296.364   686.719   1.046   1.046   0.042   0.000   0.000   6.107
0.00125   0.00475   293.000   686.719   1.046   1.046   0.000   0.042   0.000   0.000
0.00375   0.00475   293.000   686.719   1.046   1.046   0.042   0.042   0.000   0.000
0.00625   0.00475   293.000   686.719   1.046   1.046   0.042   0.042   0.000   0.000
0.00875   0.00475   293.000   686.719   1.046   1.046   0.042   0.042   0.000   0.000
0.01125   0.00475   293.000   686.719   1.046   1.046   0.042   0.042   0.000   0.000
0.01375   0.00475   293.000   686.719   1.046   1.046   0.042   0.042   0.000   0.000
0.01625   0.00475   293.000   686.719   1.046   1.046   0.042   0.042   0.000   0.000
0.01875   0.00475   293.000   686.719   1.046   1.046   0.042   0.042   0.000   0.000
0.02125   0.00475   293.000   686.719   1.046   1.046   0.042   0.042   0.000   0.000
0.02375   0.00475   293.001   686.719   1.046   1.046   0.042   0.042   0.000   0.000
0.02625   0.00475   293.002   686.719   1.046   1.046   0.042   0.042   0.000   0.000
0.02875   0.00475   293.005   686.719   1.046   1.046   0.042   0.042   0.000   0.000
0.03125   0.00475   293.010   686.719   1.046   1.046   0.042   0.042   0.000   0.000
0.03375   0.00475   293.013   686.719   1.046   1.046   0.042   0.042   0.000   0.000
0.03625   0.00475   293.016   686.719   1.046   1.046   0.042   0.042   0.000   0.000
0.03875   0.00475   293.019   686.719   1.046   1.046   0.042   0.042   0.000   0.000
0.04125   0.00475   293.026   686.719   1.046   1.046   0.042   0.042   0.000   0.000
0.04375   0.00475   293.047   686.719   1.046   1.046   0.042   0.042   0.000   0.000
0.04625   0.00475   293.130   686.719   1.046   1.046   0.042   0.042   0.000   0.000
0.04875   0.00475   296.248   686.719   1.046   1.046   0.042   0.000   0.000   6.107
0.00125   0.00425   293.000   686.719   1.046   2.085   0.000   0.042   0.000   0.000
0.00375   0.00425   293.000   686.719   1.046   2.085   0.042   0.042   0.000   0.000
0.00625   0.00425   293.000   686.719   1.046   2.085   0.042   0.042   0.000   0.000
0.00875   0.00425   293.000   686.719   1.046   2.085   0.042   0.042   0.000   0.000
0.01125   0.00425   293.000   686.719   1.046   2.085   0.042   0.042   0.000   0.000
0.01375   0.00425   293.000   686.719   1.046   2.085   0.042   0.042   0.000   0.000
0.01625   0.00425   293.000   686.719   1.046   2.085   0.042   0.042   0.000   0.000
0.01875   0.00425   293.000   686.719   1.046   2.085   0.042   0.042   0.000   0.000
0.02125   0.00425   293.000   686.719   1.046   2.085   0.042   0.042   0.000   0.000
0.02375   0.00425   293.000   686.719   1.046   2.085   0.042   0.042   0.000   0.000
0.02625   0.00425   293.000   686.719   1.046   2.085   0.042   0.042   0.000   0.000
0.02875   0.00425   293.001   686.719   1.046   2.085   0.042   0.042   0.000   0.000
0.03125   0.00425   293.002   686.719   1.046   2.085   0.042   0.042   0.000   0.000
0.03375   0.00425   293.005   686.719   1.046   2.085   0.042   0.042   0.000   0.000
0.03625   0.00425   293.013   686.719   1.046   2.085   0.042   0.042   0.000   0.000
0.03875   0.00425   293.035   686.719   1.046   2.085   0.042   0.042   0.000   0.000
0.04125   0.00425   293.089   686.719   1.046   2.085   0.042   0.042   0.000   0.000
0.04375   0.00425   293.216   686.719   1.046   2.085   0.042   0.042   0.000   0.000
0.04625   0.00425   293.501   686.719   1.046   2.085   0.042   0.042   0.000   0.000
0.04875   0.00425   296.096   686.719   1.046   2.085   0.042   0.000   0.000   6.107
0.00125   0.00375   293.000   1137.797   2.085   268.000   0.000   10.720   0.000   0.000
0.00375   0.00375   293.000   1137.797   2.085   268.000   10.720   10.720   0.000   0.000
0.00625   0.00375   293.000   1137.797   2.085   268.000   10.720   10.720   0.000   0.000
0.00875   0.00375   293.000   1137.797   2.085   268.000   10.720   10.720   0.000   0.000
0.01125   0.00375   293.000   1137.797   2.085   268.000   10.720   10.720   0.000   0.000
0.01375   0.00375   293.000   1137.797   2.085   268.000   10.720   10.720   0.000   0.000
0.01625   0.00375   293.000   1137.797   2.085   268.000   10.720   10.720   0.000   0.000
0.01875   0.00375   293.000   1137.797   2.085   268.000   10.720   10.720   0.000   0.000
0.02125   0.00375   293.000   1137.797   2.085   268.000   10.720   10.720   0.000   0.000
0.02375   0.00375   293.000   1137.797   2.085   268.000   10.720   10.720   0.000   0.000
0.02625   0.00375   293.001   1137.797   2.085   268.000   10.720   10.720   0.000   0.000
0.02875   0.00375   293.002   1137.797   2.085   268.000   10.720   10.720   0.000   0.000
0.03125   0.00375   293.007   1137.797   2.085   268.000   10.720   10.720   0.000   0.000
0.03375   0.00375   293.021   1137.797   2.085   268.000   10.720   10.720   0.000   0.000
0.03625   0.00375   293.059   1137.797   2.085   268.000   10.720   10.720   0.000   0.000
0.03875   0.00375   293.148   1137.797   2.085   268.000   10.720   10.720   0.000   0.000
0.04125   0.00375   293.341   1137.797   2.085   268.000   10.720   10.720   0.000   0.000
0.04375   0.00375   293.720   1137.797   2.085   268.000   10.720   10.720   0.000   0.000
0.04625   0.00375   294.394   1137.797   2.085   268.000   10.720   10.720   0.000   0.000
0.04875   0.00375   295.494   1137.797   2.085   268.000   10.720   0.000   0.000   16.288
0.00125   0.00325   293.000   1137.797   268.000   268.000   0.000   10.720   0.000   0.000
0.00375   0.00325   293.000   1137.797   268.000   268.000   10.720   10.720   0.000   0.000
0.00625   0.00325   293.000   1137.797   268.000   268.000   10.720   10.720   0.000   0.000
0.00875   0.00325   293.000   1137.797   268.000   268.000   10.720   10.720   0.000   0.000
0.01125   0.00325   293.000   1137.797   268.000   268.000   10.720   10.720   0.000   0.000
0.01375   0.00325   293.000   1137.797   268.000   268.000   10.720   10.720   0.000   0.000
0.01625   0.00325   293.000   1137.797   268.000   268.000   10.720   10.720   0.000   0.000
0.01875   0.00325   293.000   1137.797   268.000   268.000   10.720   10.720   0.000   0.000
0.02125   0.00325   293.000   1137.797   268.000   268.000   10.720   10.720   0.000   0.000
0.02375   0.00325   293.000   1137.797   268.000   268.000   10.720   10.720   0.000   0.000
0.02625   0.00325   293.001   1137.797   268.000   268.000   10.720   10.720   0.000   0.000
0.02875   0.00325   293.002   1137.797   268.000   268.000   10.720   10.720   0.000   0.000
0.03125   0.00325   293.007   1137.797   268.000   268.000   10.720   10.720   0.000   0.000
0.03375   0.00325   293.022   1137.797   268.000   268.000   10.720   10.720   0.000   0.000
0.03625   0.00325   293.059   1137.797   268.000   268.000   10.720   10.720   0.000   0.000
0.03875   0.00325   293.149   1137.797   268.000   268.000   10.720   10.720   0.000   0.000
0.04125   0.00325   293.343   1137.797   268.000   268.000   10.720   10.720   0.000   0.000
0.04375   0.00325   293.724   1137.797   268.000   268.000   10.720   10.720   0.000   0.000
0.04625   0.00325   294.400   1137.797   268.000   268.000   10.720   10.720   0.000   0.000
0.04875   0.00325   295.491   1137.797   268.000   268.000   10.720   0.000   0.000   16.288
0.00125   0.00275   293.000   1137.797   268.000   268.000   0.000   10.720   0.000   0.000
0.00375   0.00275   293.000   1137.797   268.000   268.000   10.720   10.720   0.000   0.000
0.00625   0.00275   293.000   1137.797   268.000   268.000   10.720   10.720   0.000   0.000
0.00875   0.00275   293.000   1137.797   268.000   268.000   10.720   10.720   0.000   0.000
0.01125   0.00275   293.000   1137.797   268.000   268.000   10.720   10.720   0.000   0.000
0.01375   0.00275   293.000   1137.797   268.000   268.000   10.720   10.720   0.000   0.000
0.01625   0.00275   293.000   1137.797   268.000   268.000   10.720   10.720   0.000   0.000
0.01875   0.00275   293.000   1137.797   268.000   268.000   10.720   10.720   0.000   0.000
0.02125   0.00275   293.000   1137.797   268.000   268.000   10.720   10.720   0.000   0.000
0.02375   0.00275   293.000   1137.797   268.000   268.000   10.720   10.720   0.000   0.000
0.02625   0.00275   293.001   1137.797   268.000   268.000   10.720   10.720   0.000   0.000
0.02875   0.00275   293.002   1137.797   268.000   268.000   10.720   10.720   0.000   0.000
0.03125   0.00275   293.007   1137.797   268.000   268.000   10.720   10.720   0.000   0.000
0.03375   0.00275   293.022   1137.797   268.000   268.000   10.720   10.720   0.000   0.000
0.03625   0.00275   293.059   1137.797   268.000   268.000   10.720   10.720   0.000   0.000
0.03875   0.00275   293.149   1137.797   268.000   268.000   10.720   10.720   0.000   0.000
0.04125   0.00275   293.344   1137.797   268.000   268.000   10.720   10.720   0.000   0.000
0.04375   0.00275   293.727   1137.797   268.000   268.000   10.720   10.720   0.000   0.000
0.04625   0.00275   294.404   1137.797   268.000   268.000   10.720   10.720   0.000   0.000
0.04875   0.00275   295.489   1137.797   268.000   268.000   10.720   0.000   0.000   16.288
0.00125   0.00225   293.000   1137.797   268.000   268.000   0.000   10.720   0.000   0.000
0.00375   0.00225   293.000   1137.797   268.000   268.000   10.720   10.720   0.000   0.000
0.00625   0.00225   293.000   1137.797   268.000   268.000   10.720   10.720   0.000   0.000
0.00875   0.00225   293.000   1137.797   268.000   268.000   10.720   10.720   0.000   0.000
0.01125   0.00225   293.000   1137.797   268.000   268.000   10.720   10.720   0.000   0.000
0.01375   0.00225   293.000   1137.797   268.000   268.000   10.720   10.720   0.000   0.000
0.01625   0.00225   293.000   1137.797   268.000   268.000   10.720   10.720   0.000   0.000
0.01875   0.00225   293.000   1137.797   268.000   268.000   10.720   10.720   0.000   0.000
0.02125   0.00225   293.000   1137.797   268.000   268.000   10.720   10.720   0.000   0.000
0.02375   0.00225   293.000   1137.797   268.000   268.000   10.720   10.720   0.000   0.000
0.02625   0.00225   293.001   1137.797   268.000   268.000   10.720   10.720   0.000   0.000
0.02875   0.00225   293.002   1137.797   268.000   268.000   10.720   10.720   0.000   0.000
0.03125   0.00225   293.007   1137.797   268.000   268.000   10.720   10.720   0.000   0.000
0.03375   0.00225   293.022   1137.797   268.000   268.000   10.720   10.720   0.000   0.000
0.03625   0.00225   293.060   1137.797   268.000   268.000   10.720   10.720   0.000   0.000
0.03875   0.00225   293.150   1137.797   268.000   268.000   10.720   10.720   0.000   0.000
0.04125   0.00225   293.346   1137.797   268.000   268.000   10.720   10.720   0.000   0.000
0.04375   0.00225   293.729   1137.797   268.000   268.000   10.720   10.720   0.000   0.000
0.04625   0.00225   294.406   1137.797   268.000   268.000   10.720   10.720   0.000   0.000
0.04875   0.00225   295.487   1137.797   268.000   268.000   10.720   0.000   0.000   16.288
0.00125   0.00175   293.000   1137.797   268.000   268.000   0.000   10.720   0.000   0.000
0.00375   0.00175   293.000   1137.797   268.000   268.000   10.720   10.720   0.000   0.000
0.00625   0.00175   293.000   1137.797   268.000   268.000   10.720   10.720   0.000   0.000
0.00875   0.00175   293.000   1137.797   268.000   268.000   10.720   10.720   0.000   0.000
0.01125   0.00175   293.000   1137.797   268.000   268.000   10.720   10.720   0.000   0.000
0.01375   0.00175   293.000   1137.797   268.000   268.000   10.720   10.720   0.000   0.000
0.01625   0.00175   293.000   1137.797   268.000   268.000   10.720   10.720   0.000   0.000
0.01875   0.00175   293.000   1137.797   268.000   268.000   10.720   10.720   0.000   0.000
0.02125   0.00175   293.000   1137.797   268.000   268.000   10.720   10.720   0.000   0.000