VARIABLES = X, Y, T, ap,an,as,aw,ae,sp,su
ZONE I=20,J=20, F=POINT,t="3.892"
0.00125   0.00975   293.008   1137.797   0.000   268.000   0.000   10.720   0.000   -0.000
0.00375   0.00975   293.013   1137.797   0.000   268.000   10.720   10.720   0.000   -0.000
0.00625   0.00975   293.025   1137.797   0.000   268.000   10.720   10.720   0.000   -0.000
0.00875   0.00975   293.049   1137.797   0.000   268.000   10.720   10.720   0.000   -0.000
0.01125   0.00975   293.093   1137.797   0.000   268.000   10.720   10.720   0.000   -0.000
0.01375   0.00975   293.173   1137.797   0.000   268.000   10.720   10.720   0.000   -0.000
0.01625   0.00975   293.310   1137.797   0.000   268.000   10.720   10.720   0.000   -0.000
0.01875   0.00975   293.537   1137.797   0.000   268.000   10.720   10.720   0.000   -0.000
0.02125   0.00975   293.899   1137.797   0.000   268.000   10.720   10.720   0.000   -0.001
0.02375   0.00975   294.457   1137.797   0.000   268.000   10.720   10.720   0.000   -0.001
0.02625   0.00975   295.294   1137.797   0.000   268.000   10.720   10.720   0.000   -0.002
0.02875   0.00975   296.547   1137.797   0.000   268.000   10.720   10.720   0.000   -0.003
0.03125   0.00975   298.703   1137.797   0.000   268.000   10.720   10.720   0.000   81.397
0.03375   0.00975   300.053   1137.797   0.000   268.000   10.720   10.720   0.000   81.379
0.03625   0.00975   301.096   1137.797   0.000   268.000   10.720   10.720   0.000   81.366
0.03875   0.00975   301.996   1137.797   0.000   268.000   10.720   10.720   0.000   81.354
0.04125   0.00975   302.871   1137.797   0.000   268.000   10.720   10.720   0.000   81.342
0.04375   0.00975   303.823   1137.797   0.000   268.000   10.720   10.720   0.000   81.330
0.04625   0.00975   304.933   1137.797   0.000   268.000   10.720   10.720   0.000   81.315
0.04875   0.00975   306.250   1137.797   0.000   268.000   10.720   0.000   0.000   97.558
0.00125   0.00925   293.008   1137.797   268.000   268.000   0.000   10.720   0.000   0.000
0.00375   0.00925   293.013   1137.797   268.000   268.000   10.720   10.720   0.000   0.000
0.00625   0.00925   293.025   1137.797   268.000   268.000   10.720   10.720   0.000   0.000
0.00875   0.00925   293.049   1137.797   268.000   268.000   10.720   10.720   0.000   0.000
0.01125   0.00925   293.093   1137.797   268.000   268.000   10.720   10.720   0.000   0.000
0.01375   0.00925   293.173   1137.797   268.000   268.000   10.720   10.720   0.000   0.000
0.01625   0.00925   293.310   1137.797   268.000   268.000   10.720   10.720   0.000   0.000
0.01875   0.00925   293.537   1137.797   268.000   268.000   10.720   10.720   0.000   0.000
0.02125   0.00925   293.899   1137.797   268.000   268.000   10.720   10.720   0.000   0.000
0.02375   0.00925   294.456   1137.797   268.000   268.000   10.720   10.720   0.000   0.000
0.02625   0.00925   295.290   1137.797   268.000   268.000   10.720   10.720   0.000   0.000
0.02875   0.00925   296.528   1137.797   268.000   268.000   10.720   10.720   0.000   0.000
0.03125   0.00925   298.453   1137.797   268.000   268.000   10.720   10.720   0.000   0.000
0.03375   0.00925   299.787   1137.797   268.000   268.000   10.720   10.720   0.000   0.000
0.03625   0.00925   300.827   1137.797   268.000   268.000   10.720   10.720   0.000   0.000
0.03875   0.00925   301.727   1137.797   268.000   268.000   10.720   10.720   0.000   0.000
0.04125   0.00925   302.602   1137.797   268.000   268.000   10.720   10.720   0.000   0.000
0.04375   0.00925   303.554   1137.797   268.000   268.000   10.720   10.720   0.000   0.000
0.04625   0.00925   304.664   1137.797   268.000   268.000   10.720   10.720   0.000   0.000
0.04875   0.00925   305.982   1137.797   268.000   268.000   10.720   0.000   0.000   16.262
0.00125   0.00875   293.008   1137.797   268.000   268.000   0.000   10.720   0.000   0.000
0.00375   0.00875   293.013   1137.797   268.000   268.000   10.720   10.720   0.000   0.000
0.00625   0.00875   293.025   1137.797   268.000   268.000   10.720   10.720   0.000   0.000
0.00875   0.00875   293.049   1137.797   268.000   268.000   10.720   10.720   0.000   0.000
0.01125   0.00875   293.093   1137.797   268.000   268.000   10.720   10.720   0.000   0.000
0.01375   0.00875   293.173   1137.797   268.000   268.000   10.720   10.720   0.000   0.000
0.01625   0.00875   293.310   1137.797   268.000   268.000   10.720   10.720   0.000   0.000
0.01875   0.00875   293.536   1137.797   268.000   268.000   10.720   10.720   0.000   0.000
0.02125   0.00875   293.898   1137.797   268.000   268.000   10.720   10.720   0.000   0.000
0.02375   0.00875   294.454   1137.797   268.000   268.000   10.720   10.720   0.000   0.000
0.02625   0.00875   295.284   1137.797   268.000   268.000   10.720   10.720   0.000   0.000
0.02875   0.00875   296.499   1137.797   268.000   268.000   10.720   10.720   0.000   0.000
0.03125   0.00875   298.247   1137.797   268.000   268.000   10.720   10.720   0.000   0.000
0.03375   0.00875   299.558   1137.797   268.000   268.000   10.720   10.720   0.000   0.000
0.03625   0.00875   300.595   1137.797   268.000   268.000   10.720   10.720   0.000   0.000
0.03875   0.00875   301.493   1137.797   268.000   268.000   10.720   10.720   0.000   0.000
0.04125   0.00875   302.367   1137.797   268.000   268.000   10.720   10.720   0.000   0.000
0.04375   0.00875   303.318   1137.797   268.000   268.000   10.720   10.720   0.000   0.000
0.04625   0.00875   304.429   1137.797   268.000   268.000   10.720   10.720   0.000   0.000
0.04875   0.00875   305.751   1137.797   268.000   268.000   10.720   0.000   0.000   16.263
0.00125   0.00825   293.008   1137.797   268.000   268.000   0.000   10.720   0.000   0.000
0.00375   0.00825   293.013   1137.797   268.000   268.000   10.720   10.720   0.000   0.000
0.00625   0.00825   293.025   1137.797   268.000   268.000   10.720   10.720   0.000   0.000
0.00875   0.00825   293.048   1137.797   268.000   268.000   10.720   10.720   0.000   0.000
0.01125   0.00825   293.093   1137.797   268.000   268.000   10.720   10.720   0.000   0.000
0.01375   0.00825   293.173   1137.797   268.000   268.000   10.720   10.720   0.000   0.000
0.01625   0.00825   293.309   1137.797   268.000   268.000   10.720   10.720   0.000   0.000
0.01875   0.00825   293.536   1137.797   268.000   268.000   10.720   10.720   0.000   0.000
0.02125   0.00825   293.896   1137.797   268.000   268.000   10.720   10.720   0.000   0.000
0.02375   0.00825   294.451   1137.797   268.000   268.000   10.720   10.720   0.000   0.000
0.02625   0.00825   295.276   1137.797   268.000   268.000   10.720   10.720   0.000   0.000
0.02875   0.00825   296.466   1137.797   268.000   268.000   10.720   10.720   0.000   0.000
0.03125   0.00825   298.080   1137.797   268.000   268.000   10.720   10.720   0.000   0.000
0.03375   0.00825   299.366   1137.797   268.000   268.000   10.720   10.720   0.000   0.000
0.03625   0.00825   300.397   1137.797   268.000   268.000   10.720   10.720   0.000   0.000
0.03875   0.00825   301.293   1137.797   268.000   268.000   10.720   10.720   0.000   0.000
0.04125   0.00825   302.166   1137.797   268.000   268.000   10.720   10.720   0.000   0.000
0.04375   0.00825   303.117   1137.797   268.000   268.000   10.720   10.720   0.000   0.000
0.04625   0.00825   304.228   1137.797   268.000   268.000   10.720   10.720   0.000   0.000
0.04875   0.00825   305.555   1137.797   268.000   268.000   10.720   0.000   0.000   16.263
0.00125   0.00775   293.008   1137.797   268.000   268.000   0.000   10.720   0.000   0.000
0.00375   0.00775   293.013   1137.797   268.000   268.000   10.720   10.720   0.000   0.000
0.00625   0.00775   293.025   1137.797   268.000   268.000   10.720   10.720   0.000   0.000
0.00875   0.00775   293.048   1137.797   268.000   268.000   10.720   10.720   0.000   0.000
0.01125   0.00775   293.093   1137.797   268.000   268.000   10.720   10.720   0.000   0.000
0.01375   0.00775   293.172   1137.797   268.000   268.000   10.720   10.720   0.000   0.000
0.01625   0.00775   293.309   1137.797   268.000   268.000   10.720   10.720   0.000   0.000
0.01875   0.00775   293.534   1137.797   268.000   268.000   10.720   10.720   0.000   0.000
0.02125   0.00775   293.894   1137.797   268.000   268.000   10.720   10.720   0.000   0.000
0.02375   0.00775   294.447   1137.797   268.000   268.000   10.720   10.720   0.000   0.000
0.02625   0.00775   295.267   1137.797   268.000   268.000   10.720   10.720   0.000   0.000
0.02875   0.00775   296.432   1137.797   268.000   268.000   10.720   10.720   0.000   0.000
0.03125   0.00775   297.948   1137.797   268.000   268.000   10.720   10.720   0.000   0.000
0.03375   0.00775   299.209   1137.797   268.000   268.000   10.720   10.720   0.000   0.000
0.03625   0.00775   300.234   1137.797   268.000   268.000   10.720   10.720   0.000   0.000
0.03875   0.00775   301.128   1137.797   268.000   268.000   10.720   10.720   0.000   0.000
0.04125   0.00775   302.000   1137.797   268.000   268.000   10.720   10.720   0.000   0.000
0.04375   0.00775   302.949   1137.797   268.000   268.000   10.720   10.720   0.000   0.000
0.04625   0.00775   304.061   1137.797   268.000   268.000   10.720   10.720   0.000   0.000
0.04875   0.00775   305.395   1137.797   268.000   268.000   10.720   0.000   0.000   16.264
0.00125   0.00725   293.008   1137.797   268.000   268.000   0.000   10.720   0.000   0.000
0.00375   0.00725   293.013   1137.797   268.000   268.000   10.720   10.720   0.000   0.000
0.00625   0.00725   293.024   1137.797   268.000   268.000   10.720   10.720   0.000   0.000
0.00875   0.00725   293.048   1137.797   268.000   268.000   10.720   10.720   0.000   0.000
0.01125   0.00725   293.092   1137.797   268.000   268.000   10.720   10.720   0.000   0.000
0.01375   0.00725   293.172   1137.797   268.000   268.000   10.720   10.720   0.000   0.000
0.01625   0.00725   293.308   1137.797   268.000   268.000   10.720   10.720   0.000   0.000
0.01875   0.00725   293.533   1137.797   268.000   268.000   10.720   10.720   0.000   0.000
0.02125   0.00725   293.892   1137.797   268.000   268.000   10.720   10.720   0.000   0.000
0.02375   0.00725   294.443   1137.797   268.000   268.000   10.720   10.720   0.000   0.000
0.02625   0.00725   295.257   1137.797   268.000   268.000   10.720   10.720   0.000   0.000
0.02875   0.00725   296.402   1137.797   268.000   268.000   10.720   10.720   0.000   0.000
0.03125   0.00725   297.847   1137.797   268.000   268.000   10.720   10.720   0.000   0.000
0.03375   0.00725   299.087   1137.797   268.000   268.000   10.720   10.720   0.000   0.000
0.03625   0.00725   300.106   1137.797   268.000   268.000   10.720   10.720   0.000   0.000
0.03875   0.00725   300.998   1137.797   268.000   268.000   10.720   10.720   0.000   0.000
0.04125   0.00725   301.868   1137.797   268.000   268.000   10.720   10.720   0.000   0.000
0.04375   0.00725   302.815   1137.797   268.000   268.000   10.720   10.720   0.000   0.000
0.04625   0.00725   303.928   1137.797   268.000   268.000   10.720   10.720   0.000   0.000
0.04875   0.00725   305.272   1137.797   268.000   268.000   10.720   0.000   0.000   16.264
0.00125   0.00675   293.008   1137.797   268.000   268.000   0.000   10.720   0.000   0.000
0.00375   0.00675   293.013   1137.797   268.000   268.000   10.720   10.720   0.000   0.000
0.00625   0.00675   293.024   1137.797   268.000   268.000   10.720   10.720   0.000   0.000
0.00875   0.00675   293.048   1137.797   268.000   268.000   10.720   10.720   0.000   0.000
0.01125   0.00675   293.092   1137.797   268.000   268.000   10.720   10.720   0.000   0.000
0.01375   0.00675   293.171   1137.797   268.000   268.000   10.720   10.720   0.000   0.000
0.01625   0.00675   293.307   1137.797   268.000   268.000   10.720   10.720   0.000   0.000
0.01875   0.00675   293.531   1137.797   268.000   268.000   10.720   10.720   0.000   0.000
0.02125   0.00675   293.889   1137.797   268.000   268.000   10.720   10.720   0.000   0.000
0.02375   0.00675   294.438   1137.797   268.000   268.000   10.720   10.720   0.000   0.000
0.02625   0.00675   295.247   1137.797   268.000   268.000   10.720   10.720   0.000   0.000
0.02875   0.00675   296.377   1137.797   268.000   268.000   10.720   10.720   0.000   0.000
0.03125   0.00675   297.775   1137.797   268.000   268.000   10.720   10.720   0.000   0.000
0.03375   0.00675   298.999   1137.797   268.000   268.000   10.720   10.720   0.000   0.000
0.03625   0.00675   300.013   1137.797   268.000   268.000   10.720   10.720   0.000   0.000
0.03875   0.00675   300.902   1137.797   268.000   268.000   10.720   10.720   0.000   0.000
0.04125   0.00675   301.769   1137.797   268.000   268.000   10.720   10.720   0.000   0.000
0.04375   0.00675   302.715   1137.797   268.000   268.000   10.720   10.720   0.000   0.000
0.04625   0.00675   303.828   1137.797   268.000   268.000   10.720   10.720   0.000   0.000
0.04875   0.00675   305.186   1137.797   268.000   268.000   10.720   0.000   0.000   16.264
0.00125   0.00625   293.008   1137.797   268.000   2.085   0.000   10.720   0.000   0.000
0.00375   0.00625   293.013   1137.797   268.000   2.085   10.720   10.720   0.000   0.000
0.00625   0.00625   293.024   1137.797   268.000   2.085   10.720   10.720   0.000   0.000
0.00875   0.00625   293.048   1137.797   268.000   2.085   10.720   10.720   0.000   0.000
0.01125   0.00625   293.092   1137.797   268.000   2.085   10.720   10.720   0.000   0.000
0.01375   0.00625   293.170   1137.797   268.000   2.085   10.720   10.720   0.000   0.000
0.01625   0.00625   293.305   1137.797   268.000   2.085   10.720   10.720   0.000   0.000
0.01875   0.00625   293.529   1137.797   268.000   2.085   10.720   10.720   0.000   0.000
0.02125   0.00625   293.885   1137.797   268.000   2.085   10.720   10.720   0.000   0.000
0.02375   0.00625   294.432   1137.797   268.000   2.085   10.720   10.720   0.000   0.000
0.02625   0.00625   295.238   1137.797   268.000   2.085   10.720   10.720   0.000   0.000
0.02875   0.00625   296.358   1137.797   268.000   2.085   10.720   10.720   0.000   0.000
0.03125   0.00625   297.731   1137.797   268.000   2.085   10.720   10.720   0.000   0.000
0.03375   0.00625   298.945   1137.797   268.000   2.085   10.720   10.720   0.000   0.000
0.03625   0.00625   299.955   1137.797   268.000   2.085   10.720   10.720   0.000   0.000
0.03875   0.00625   300.840   1137.797   268.000   2.085   10.720   10.720   0.000   0.000
0.04125   0.00625   301.705   1137.797   268.000   2.085   10.720   10.720   0.000   0.000
0.04375   0.00625   302.649   1137.797   268.000   2.085   10.720   10.720   0.000   0.000
0.04625   0.00625   303.760   1137.797   268.000   2.085   10.720   10.720   0.000   0.000
0.04875   0.00625   305.137   1137.797   268.000   2.085   10.720   0.000   0.000   16.264
0.00125   0.00575   293.002   686.719   2.085   1.046   0.000   0.042   0.000   0.000
0.00375   0.00575   293.004   686.719   2.085   1.046   0.042   0.042   0.000   0.000
0.00625   0.00575   293.008   686.719   2.085   1.046   0.042   0.042   0.000   0.000
0.00875   0.00575   293.016   686.719   2.085   1.046   0.042   0.042   0.000   0.000
0.01125   0.00575   293.033   686.719   2.085   1.046   0.042   0.042   0.000   0.000
0.01375   0.00575   293.065   686.719   2.085   1.046   0.042   0.042   0.000   0.000
0.01625   0.00575   293.124   686.719   2.085   1.046   0.042   0.042   0.000   0.000
0.01875   0.00575   293.228   686.719   2.085   1.046   0.042   0.042   0.000   0.000
0.02125   0.00575   293.404   686.719   2.085   1.046   0.042   0.042   0.000   0.000
0.02375   0.00575   293.692   686.719   2.085   1.046   0.042   0.042   0.000   0.000
0.02625   0.00575   294.141   686.719   2.085   1.046   0.042   0.042   0.000   0.000
0.02875   0.00575   294.795   686.719   2.085   1.046   0.042   0.042   0.000   0.000
0.03125   0.00575   295.616   686.719   2.085   1.046   0.042   0.042   0.000   0.000
0.03375   0.00575   296.317   686.719   2.085   1.046   0.042   0.042   0.000   0.000
0.03625   0.00575   296.872   686.719   2.085   1.046   0.042   0.042   0.000   0.000
0.03875   0.00575   297.346   686.719   2.085   1.046   0.042   0.042   0.000   0.000
0.04125   0.00575   297.822   686.719   2.085   1.046   0.042   0.042   0.000   0.000
0.04375   0.00575   298.382   686.719   2.085   1.046   0.042   0.042   0.000   0.000
0.04625   0.00575   299.183   686.719   2.085   1.046   0.042   0.042   0.000   0.000
0.04875   0.00575   303.732   686.719   2.085   1.046   0.042   0.000   0.000   6.100
0.00125   0.00525   293.000   686.719   1.046   1.046   0.000   0.042   0.000   0.000
0.00375   0.00525   293.001   686.719   1.046   1.046   0.042   0.042   0.000   0.000
0.00625   0.00525   293.001   686.719   1.046   1.046   0.042   0.042   0.000   0.000
0.00875   0.00525   293.003   686.719   1.046   1.046   0.042   0.042   0.000   0.000
0.01125   0.00525   293.006   686.719   1.046   1.046   0.042   0.042   0.000   0.000
0.01375   0.00525   293.013   686.719   1.046   1.046   0.042   0.042   0.000   0.000
0.01625   0.00525   293.027   686.719   1.046   1.046   0.042   0.042   0.000   0.000
0.01875   0.00525   293.054   686.719   1.046   1.046   0.042   0.042   0.000   0.000
0.02125   0.00525   293.102   686.719   1.046   1.046   0.042   0.042   0.000   0.000
0.02375   0.00525   293.188   686.719   1.046   1.046   0.042   0.042   0.000   0.000
0.02625   0.00525   293.333   686.719   1.046   1.046   0.042   0.042   0.000   0.000
0.02875   0.00525   293.557   686.719   1.046   1.046   0.042   0.042   0.000   0.000
0.03125   0.00525   293.849   686.719   1.046   1.046   0.042   0.042   0.000   0.000
0.03375   0.00525   294.089   686.719   1.046   1.046   0.042   0.042   0.000   0.000
0.03625   0.00525   294.269   686.719   1.046   1.046   0.042   0.042   0.000   0.000
0.03875   0.00525   294.424   686.719   1.046   1.046   0.042   0.042   0.000   0.000
0.04125   0.00525   294.594   686.719   1.046   1.046   0.042   0.042   0.000   0.000
0.04375   0.00525   294.829   686.719   1.046   1.046   0.042   0.042   0.000   0.000
0.04625   0.00525   295.339   686.719   1.046   1.046   0.042   0.042   0.000   0.000
0.04875   0.00525   302.154   686.719   1.046   1.046   0.042   0.000   0.000   6.102
0.00125   0.00475   293.000   686.719   1.046   1.046   0.000   0.042   0.000   0.000
0.00375   0.00475   293.000   686.719   1.046   1.046   0.042   0.042   0.000   0.000
0.00625   0.00475   293.000   686.719   1.046   1.046   0.042   0.042   0.000   0.000
0.00875   0.00475   293.000   686.719   1.046   1.046   0.042   0.042   0.000   0.000
0.01125   0.00475   293.001   686.719   1.046   1.046   0.042   0.042   0.000   0.000
0.01375   0.00475   293.002   686.719   1.046   1.046   0.042   0.042   0.000   0.000
0.01625   0.00475   293.005   686.719   1.046   1.046   0.042   0.042   0.000   0.000
0.01875   0.00475   293.011   686.719   1.046   1.046   0.042   0.042   0.000   0.000
0.02125   0.00475   293.023   686.719   1.046   1.046   0.042   0.042   0.000   0.000
0.02375   0.00475   293.045   686.719   1.046   1.046   0.042   0.042   0.000   0.000
0.02625   0.00475   293.086   686.719   1.046   1.046   0.042   0.042   0.000   0.000
0.02875   0.00475   293.154   686.719   1.046   1.046   0.042   0.042   0.000   0.000
0.03125   0.00475   293.248   686.719   1.046   1.046   0.042   0.042   0.000   0.000
0.03375   0.00475   293.331   686.719   1.046   1.046   0.042   0.042   0.000   0.000
0.03625   0.00475   293.408   686.719   1.046   1.046   0.042   0.042   0.000   0.000
0.03875   0.00475   293.500   686.719   1.046   1.046   0.042   0.042   0.000   0.000
0.04125   0.00475   293.633   686.719   1.046   1.046   0.042   0.042   0.000   0.000
0.04375   0.00475   293.848   686.719   1.046   1.046   0.042   0.042   0.000   0.000
0.04625   0.00475   294.347   686.719   1.046   1.046   0.042   0.042   0.000   0.000
0.04875   0.00475   301.159   686.719   1.046   1.046   0.042   0.000   0.000   6.103
0.00125   0.00425   293.000   686.719   1.046   2.085   0.000   0.042   0.000   0.000
0.00375   0.00425   293.000   686.719   1.046   2.085   0.042   0.042   0.000   0.000
0.00625   0.00425   293.000   686.719   1.046   2.085   0.042   0.042   0.000   0.000
0.00875   0.00425   293.000   686.719   1.046   2.085   0.042   0.042   0.000   0.000
0.01125   0.00425   293.000   686.719   1.046   2.085   0.042   0.042   0.000   0.000
0.01375   0.00425   293.001   686.719   1.046   2.085   0.042   0.042   0.000   0.000
0.01625   0.00425   293.002   686.719   1.046   2.085   0.042   0.042   0.000   0.000
0.01875   0.00425   293.004   686.719   1.046   2.085   0.042   0.042   0.000   0.000
0.02125   0.00425   293.008   686.719   1.046   2.085   0.042   0.042   0.000   0.000
0.02375   0.00425   293.017   686.719   1.046   2.085   0.042   0.042   0.000   0.000
0.02625   0.00425   293.035   686.719   1.046   2.085   0.042   0.042   0.000   0.000
0.02875   0.00425   293.068   686.719   1.046   2.085   0.042   0.042   0.000   0.000
0.03125   0.00425   293.124   686.719   1.046   2.085   0.042   0.042   0.000   0.000
0.03375   0.00425   293.205   686.719   1.046   2.085   0.042   0.042   0.000   0.000
0.03625   0.00425   293.329   686.719   1.046   2.085   0.042   0.042   0.000   0.000
0.03875   0.00425   293.525   686.719   1.046   2.085   0.042   0.042   0.000   0.000
0.04125   0.00425   293.830   686.719   1.046   2.085   0.042   0.042   0.000   0.000
0.04375   0.00425   294.291   686.719   1.046   2.085   0.042   0.042   0.000   0.000
0.04625   0.00425   295.039   686.719   1.046   2.085   0.042   0.042   0.000   0.000
0.04875   0.00425   299.566   686.719   1.046   2.085   0.042   0.000   0.000   6.104
0.00125   0.00375   293.000   1137.797   2.085   268.000   0.000   10.720   0.000   0.000
0.00375   0.00375   293.000   1137.797   2.085   268.000   10.720   10.720   0.000   0.000
0.00625   0.00375   293.000   1137.797   2.085   268.000   10.720   10.720   0.000   0.000
0.00875   0.00375   293.000   1137.797   2.085   268.000   10.720   10.720   0.000   0.000
0.01125   0.00375   293.001   1137.797   2.085   268.000   10.720   10.720   0.000   0.000
0.01375   0.00375   293.001   1137.797   2.085   268.000   10.720   10.720   0.000   0.000
0.01625   0.00375   293.003   1137.797   2.085   268.000   10.720   10.720   0.000   0.000
0.01875   0.00375   293.007   1137.797   2.085   268.000   10.720   10.720   0.000   0.000
0.02125   0.00375   293.015   1137.797   2.085   268.000   10.720   10.720   0.000   0.000
0.02375   0.00375   293.030   1137.797   2.085   268.000   10.720   10.720   0.000   0.000
0.02625   0.00375   293.059   1137.797   2.085   268.000   10.720   10.720   0.000   0.000
0.02875   0.00375   293.111   1137.797   2.085   268.000   10.720   10.720   0.000   0.000
0.03125   0.00375   293.200   1137.797   2.085   268.000   10.720   10.720   0.000   0.000
0.03375   0.00375   293.348   1137.797   2.085   268.000   10.720   10.720   0.000   0.000
0.03625   0.00375   293.582   1137.797   2.085   268.000   10.720   10.720   0.000   0.000
0.03875   0.00375   293.937   1137.797   2.085   268.000   10.720   10.720   0.000   0.000
0.04125   0.00375   294.457   1137.797   2.085   268.000   10.720   10.720   0.000   0.000
0.04375   0.00375   295.188   1137.797   2.085   268.000   10.720   10.720   0.000   0.000
0.04625   0.00375   296.180   1137.797   2.085   268.000   10.720   10.720   0.000   0.000
0.04875   0.00375   297.504   1137.797   2.085   268.000   10.720   0.000   0.000   16.283
0.00125   0.00325   293.000   1137.797   268.000   268.000   0.000   10.720   0.000   0.000
0.00375   0.00325   293.000   1137.797   268.000   268.000   10.720   10.720   0.000   0.000
0.00625   0.00325   293.000   1137.797   268.000   268.000   10.720   10.720   0.000   0.000
0.00875   0.00325   293.000   1137.797   268.000   268.000   10.720   10.720   0.000   0.000
0.01125   0.00325   293.001   1137.797   268.000   268.000   10.720   10.720   0.000   0.000
0.01375   0.00325   293.001   1137.797   268.000   268.000   10.720   10.720   0.000   0.000
0.01625   0.00325   293.003   1137.797   268.000   268.000   10.720   10.720   0.000   0.000
0.01875   0.00325   293.007   1137.797   268.000   268.000   10.720   10.720   0.000   0.000
0.02125   0.00325   293.015   1137.797   268.000   268.000   10.720   10.720   0.000   0.000
0.02375   0.00325   293.030   1137.797   268.000   268.000   10.720   10.720   0.000   0.000
0.02625   0.00325   293.059   1137.797   268.000   268.000   10.720   10.720   0.000   0.000
0.02875   0.00325   293.111   1137.797   268.000   268.000   10.720   10.720   0.000   0.000
0.03125   0.00325   293.201   1137.797   268.000   268.000   10.720   10.720   0.000   0.000
0.03375   0.00325   293.349   1137.797   268.000   268.000   10.720   10.720   0.000   0.000
0.03625   0.00325   293.583   1137.797   268.000   268.000   10.720   10.720   0.000   0.000
0.03875   0.00325   293.940   1137.797   268.000   268.000   10.720   10.720   0.000   0.000
0.04125   0.00325   294.462   1137.797   268.000   268.000   10.720   10.720   0.000   0.000
0.04375   0.00325   295.194   1137.797   268.000   268.000   10.720   10.720   0.000   0.000
0.04625   0.00325   296.187   1137.797   268.000   268.000   10.720   10.720   0.000   0.000
0.04875   0.00325   297.491   1137.797   268.000   268.000   10.720   0.000   0.000   16.283
0.00125   0.00275   293.000   1137.797   268.000   268.000   0.000   10.720   0.000   0.000
0.00375   0.00275   293.000   1137.797   268.000   268.000   10.720   10.720   0.000   0.000
0.00625   0.00275   293.000   1137.797   268.000   268.000   10.720   10.720   0.000   0.000
0.00875   0.00275   293.000   1137.797   268.000   268.000   10.720   10.720   0.000   0.000
0.01125   0.00275   293.001   1137.797   268.000   268.000   10.720   10.720   0.000   0.000
0.01375   0.00275   293.001   1137.797   268.000   268.000   10.720   10.720   0.000   0.000
0.01625   0.00275   293.003   1137.797   268.000   268.000   10.720   10.720   0.000   0.000
0.01875   0.00275   293.007   1137.797   268.000   268.000   10.720   10.720   0.000   0.000
0.02125   0.00275   293.015   1137.797   268.000   268.000   10.720   10.720   0.000   0.000
0.02375   0.00275   293.031   1137.797   268.000   268.000   10.720   10.720   0.000   0.000
0.02625   0.00275   293.060   1137.797   268.000   268.000   10.720   10.720   0.000   0.000
0.02875   0.00275   293.112   1137.797   268.000   268.000   10.720   10.720   0.000   0.000
0.03125   0.00275   293.201   1137.797   268.000   268.000   10.720   10.720   0.000   0.000
0.03375   0.00275   293.350   1137.797   268.000   268.000   10.720   10.720   0.000   0.000
0.03625   0.00275   293.585   1137.797   268.000   268.000   10.720   10.720   0.000   0.000
0.03875   0.00275   293.943   1137.797   268.000   268.000   10.720   10.720   0.000   0.000
0.04125   0.00275   294.465   1137.797   268.000   268.000   10.720   10.720   0.000   0.000
0.04375   0.00275   295.199   1137.797   268.000   268.000   10.720   10.720   0.000   0.000
0.04625   0.00275   296.191   1137.797   268.000   268.000   10.720   10.720   0.000   0.000
0.04875   0.00275   297.482   1137.797   268.000   268.000   10.720   0.000   0.000   16.283
0.00125   0.00225   293.000   1137.797   268.000   268.000   0.000   10.720   0.000   0.000
0.00375   0.00225   293.000   1137.797   268.000   268.000   10.720   10.720   0.000   0.000
0.00625   0.00225   293.000   1137.797   268.000   268.000   10.720   10.720   0.000   0.000
0.00875   0.00225   293.000   1137.797   268.000   268.000   10.720   10.720   0.000   0.000
0.01125   0.00225   293.001   1137.797   268.000   268.000   10.720   10.720   0.000   0.000
0.01375   0.00225   293.001   1137.797   268.000   268.000   10.720   10.720   0.000   0.000
0.01625   0.00225   293.003   1137.797   268.000   268.000   10.720   10.720   0.000   0.000
0.01875   0.00225   293.007   1137.797   268.000   268.000   10.720   10.720   0.000   0.000
0.02125   0.00225   293.015   1137.797   268.000   268.000   10.720   10.720   0.000   0.000
0.02375   0.00225   293.031   1137.797   268.000   268.000   10.720   10.720   0.000   0.000
0.02625   0.00225   293.060   1137.797   268.000   268.000   10.720   10.720   0.000   0.000
0.02875   0.00225   293.112   1137.797   268.000   268.000   10.720   10.720   0.000   0.000
0.03125   0.00225   293.202   1137.797   268.000   268.000   10.720   10.720   0.000   0.000
0.03375   0.00225   293.350   1137.797   268.000   268.000   10.720   10.720   0.000   0.000
0.03625   0.00225   293.586   1137.797   268.000   268.000   10.720   10.720   0.000   0.000
0.03875   0.00225   293.945   1137.797   268.000   268.000   10.720   10.720   0.000   0.000
0.04125   0.00225   294.468   1137.797   268.000   268.000   10.720   10.720   0.000   0.000
0.04375   0.00225   295.203   1137.797   268.000   268.000   10.720   10.720   0.000   0.000
0.04625   0.00225   296.194   1137.797   268.000   268.000   10.720   10.720   0.000   0.000
0.04875   0.00225   297.475   1137.797   268.000   268.000   10.720   0.000   0.000   16.283
0.00125   0.00175   293.000   1137.797   268.000   268.000   0.000   10.720   0.000   0.000
0.00375   0.00175   293.000   1137.797   268.000   268.000   10.720   10.720   0.000   0.000
0.00625   0.00175   293.000   1137.797   268.000   268.000   10.720   10.720   0.000   0.000
0.00875   0.00175   293.000   1137.797   268.000   268.000   10.720   10.720   0.000   0.000
0.01125   0.00175   293.001   1137.797   268.000   268.000   10.720   10.720   0.000   0.000
0.01375   0.00175   293.001   1137.797   268.000   268.000   10.720   10.720   0.000   0.000
0.01625   0.00175   293.003   1137.797   268.000   268.000   10.720   10.720   0.000   0.000
0.01875   0.00175   293.007   1137.797   268.000   268.000   10.720   10.720   0.000   0.000
0.02125   0.00175   293.015   1137.797   268.000   268.000   10.720   10.720   0.000   0.000