VARIABLES = X, Y, T, ap,an,as,aw,ae,sp,su
ZONE I=20,J=20, F=POINT,t="17.808"
0.00125   0.00975   295.497   1137.797   0.000   268.000   0.000   10.720   0.000   -0.002
0.00375   0.00975   295.669   1137.797   0.000   268.000   10.720   10.720   0.000   -0.002
0.00625   0.00975   296.020   1137.797   0.000   268.000   10.720   10.720   0.000   -0.002
0.00875   0.00975   296.561   1137.797   0.000   268.000   10.720   10.720   0.000   -0.003
0.01125   0.00975   297.310   1137.797   0.000   268.000   10.720   10.720   0.000   -0.003
0.01375   0.00975   298.290   1137.797   0.000   268.000   10.720   10.720   0.000   -0.004
0.01625   0.00975   299.531   1137.797   0.000   268.000   10.720   10.720   0.000   -0.005
0.01875   0.00975   301.066   1137.797   0.000   268.000   10.720   10.720   0.000   -0.006
0.02125   0.00975   302.933   1137.797   0.000   268.000   10.720   10.720   0.000   -0.007
0.02375   0.00975   305.176   1137.797   0.000   268.000   10.720   10.720   0.000   -0.009
0.02625   0.00975   307.848   1137.797   0.000   268.000   10.720   10.720   0.000   -0.011
0.02875   0.00975   311.044   1137.797   0.000   268.000   10.720   10.720   0.000   -0.014
0.03125   0.00975   315.194   1137.797   0.000   268.000   10.720   10.720   0.000   81.168
0.03375   0.00975   318.528   1137.797   0.000   268.000   10.720   10.720   0.000   81.117
0.03625   0.00975   321.475   1137.797   0.000   268.000   10.720   10.720   0.000   81.071
0.03875   0.00975   324.124   1137.797   0.000   268.000   10.720   10.720   0.000   81.029
0.04125   0.00975   326.521   1137.797   0.000   268.000   10.720   10.720   0.000   80.990
0.04375   0.00975   328.700   1137.797   0.000   268.000   10.720   10.720   0.000   80.953
0.04625   0.00975   330.678   1137.797   0.000   268.000   10.720   10.720   0.000   80.920
0.04875   0.00975   332.451   1137.797   0.000   268.000   10.720   0.000   0.000   97.073
0.00125   0.00925   295.496   1137.797   268.000   268.000   0.000   10.720   0.000   0.000
0.00375   0.00925   295.668   1137.797   268.000   268.000   10.720   10.720   0.000   0.000
0.00625   0.00925   296.019   1137.797   268.000   268.000   10.720   10.720   0.000   0.000
0.00875   0.00925   296.560   1137.797   268.000   268.000   10.720   10.720   0.000   0.000
0.01125   0.00925   297.309   1137.797   268.000   268.000   10.720   10.720   0.000   0.000
0.01375   0.00925   298.289   1137.797   268.000   268.000   10.720   10.720   0.000   0.000
0.01625   0.00925   299.529   1137.797   268.000   268.000   10.720   10.720   0.000   0.000
0.01875   0.00925   301.064   1137.797   268.000   268.000   10.720   10.720   0.000   0.000
0.02125   0.00925   302.930   1137.797   268.000   268.000   10.720   10.720   0.000   0.000
0.02375   0.00925   305.173   1137.797   268.000   268.000   10.720   10.720   0.000   0.000
0.02625   0.00925   307.843   1137.797   268.000   268.000   10.720   10.720   0.000   0.000
0.02875   0.00925   311.023   1137.797   268.000   268.000   10.720   10.720   0.000   0.000
0.03125   0.00925   314.942   1137.797   268.000   268.000   10.720   10.720   0.000   0.000
0.03375   0.00925   318.261   1137.797   268.000   268.000   10.720   10.720   0.000   0.000
0.03625   0.00925   321.205   1137.797   268.000   268.000   10.720   10.720   0.000   0.000
0.03875   0.00925   323.854   1137.797   268.000   268.000   10.720   10.720   0.000   0.000
0.04125   0.00925   326.251   1137.797   268.000   268.000   10.720   10.720   0.000   0.000
0.04375   0.00925   328.430   1137.797   268.000   268.000   10.720   10.720   0.000   0.000
0.04625   0.00925   330.409   1137.797   268.000   268.000   10.720   10.720   0.000   0.000
0.04875   0.00925   332.184   1137.797   268.000   268.000   10.720   0.000   0.000   16.185
0.00125   0.00875   295.495   1137.797   268.000   268.000   0.000   10.720   0.000   0.000
0.00375   0.00875   295.667   1137.797   268.000   268.000   10.720   10.720   0.000   0.000
0.00625   0.00875   296.017   1137.797   268.000   268.000   10.720   10.720   0.000   0.000
0.00875   0.00875   296.558   1137.797   268.000   268.000   10.720   10.720   0.000   0.000
0.01125   0.00875   297.306   1137.797   268.000   268.000   10.720   10.720   0.000   0.000
0.01375   0.00875   298.286   1137.797   268.000   268.000   10.720   10.720   0.000   0.000
0.01625   0.00875   299.526   1137.797   268.000   268.000   10.720   10.720   0.000   0.000
0.01875   0.00875   301.060   1137.797   268.000   268.000   10.720   10.720   0.000   0.000
0.02125   0.00875   302.926   1137.797   268.000   268.000   10.720   10.720   0.000   0.000
0.02375   0.00875   305.167   1137.797   268.000   268.000   10.720   10.720   0.000   0.000
0.02625   0.00875   307.832   1137.797   268.000   268.000   10.720   10.720   0.000   0.000
0.02875   0.00875   310.990   1137.797   268.000   268.000   10.720   10.720   0.000   0.000
0.03125   0.00875   314.733   1137.797   268.000   268.000   10.720   10.720   0.000   0.000
0.03375   0.00875   318.028   1137.797   268.000   268.000   10.720   10.720   0.000   0.000
0.03625   0.00875   320.969   1137.797   268.000   268.000   10.720   10.720   0.000   0.000
0.03875   0.00875   323.616   1137.797   268.000   268.000   10.720   10.720   0.000   0.000
0.04125   0.00875   326.013   1137.797   268.000   268.000   10.720   10.720   0.000   0.000
0.04375   0.00875   328.191   1137.797   268.000   268.000   10.720   10.720   0.000   0.000
0.04625   0.00875   330.173   1137.797   268.000   268.000   10.720   10.720   0.000   0.000
0.04875   0.00875   331.953   1137.797   268.000   268.000   10.720   0.000   0.000   16.185
0.00125   0.00825   295.492   1137.797   268.000   268.000   0.000   10.720   0.000   0.000
0.00375   0.00825   295.664   1137.797   268.000   268.000   10.720   10.720   0.000   0.000
0.00625   0.00825   296.015   1137.797   268.000   268.000   10.720   10.720   0.000   0.000
0.00875   0.00825   296.555   1137.797   268.000   268.000   10.720   10.720   0.000   0.000
0.01125   0.00825   297.303   1137.797   268.000   268.000   10.720   10.720   0.000   0.000
0.01375   0.00825   298.282   1137.797   268.000   268.000   10.720   10.720   0.000   0.000
0.01625   0.00825   299.521   1137.797   268.000   268.000   10.720   10.720   0.000   0.000
0.01875   0.00825   301.054   1137.797   268.000   268.000   10.720   10.720   0.000   0.000
0.02125   0.00825   302.919   1137.797   268.000   268.000   10.720   10.720   0.000   0.000
0.02375   0.00825   305.158   1137.797   268.000   268.000   10.720   10.720   0.000   0.000
0.02625   0.00825   307.818   1137.797   268.000   268.000   10.720   10.720   0.000   0.000
0.02875   0.00825   310.950   1137.797   268.000   268.000   10.720   10.720   0.000   0.000
0.03125   0.00825   314.560   1137.797   268.000   268.000   10.720   10.720   0.000   0.000
0.03375   0.00825   317.830   1137.797   268.000   268.000   10.720   10.720   0.000   0.000
0.03625   0.00825   320.765   1137.797   268.000   268.000   10.720   10.720   0.000   0.000
0.03875   0.00825   323.411   1137.797   268.000   268.000   10.720   10.720   0.000   0.000
0.04125   0.00825   325.807   1137.797   268.000   268.000   10.720   10.720   0.000   0.000
0.04375   0.00825   327.985   1137.797   268.000   268.000   10.720   10.720   0.000   0.000
0.04625   0.00825   329.969   1137.797   268.000   268.000   10.720   10.720   0.000   0.000
0.04875   0.00825   331.758   1137.797   268.000   268.000   10.720   0.000   0.000   16.186
0.00125   0.00775   295.489   1137.797   268.000   268.000   0.000   10.720   0.000   0.000
0.00375   0.00775   295.661   1137.797   268.000   268.000   10.720   10.720   0.000   0.000
0.00625   0.00775   296.011   1137.797   268.000   268.000   10.720   10.720   0.000   0.000
0.00875   0.00775   296.551   1137.797   268.000   268.000   10.720   10.720   0.000   0.000
0.01125   0.00775   297.298   1137.797   268.000   268.000   10.720   10.720   0.000   0.000
0.01375   0.00775   298.277   1137.797   268.000   268.000   10.720   10.720   0.000   0.000
0.01625   0.00775   299.515   1137.797   268.000   268.000   10.720   10.720   0.000   0.000
0.01875   0.00775   301.046   1137.797   268.000   268.000   10.720   10.720   0.000   0.000
0.02125   0.00775   302.909   1137.797   268.000   268.000   10.720   10.720   0.000   0.000
0.02375   0.00775   305.146   1137.797   268.000   268.000   10.720   10.720   0.000   0.000
0.02625   0.00775   307.800   1137.797   268.000   268.000   10.720   10.720   0.000   0.000
0.02875   0.00775   310.908   1137.797   268.000   268.000   10.720   10.720   0.000   0.000
0.03125   0.00775   314.419   1137.797   268.000   268.000   10.720   10.720   0.000   0.000
0.03375   0.00775   317.665   1137.797   268.000   268.000   10.720   10.720   0.000   0.000
0.03625   0.00775   320.594   1137.797   268.000   268.000   10.720   10.720   0.000   0.000
0.03875   0.00775   323.237   1137.797   268.000   268.000   10.720   10.720   0.000   0.000
0.04125   0.00775   325.632   1137.797   268.000   268.000   10.720   10.720   0.000   0.000
0.04375   0.00775   327.810   1137.797   268.000   268.000   10.720   10.720   0.000   0.000
0.04625   0.00775   329.797   1137.797   268.000   268.000   10.720   10.720   0.000   0.000
0.04875   0.00775   331.598   1137.797   268.000   268.000   10.720   0.000   0.000   16.187
0.00125   0.00725   295.485   1137.797   268.000   268.000   0.000   10.720   0.000   0.000
0.00375   0.00725   295.657   1137.797   268.000   268.000   10.720   10.720   0.000   0.000
0.00625   0.00725   296.007   1137.797   268.000   268.000   10.720   10.720   0.000   0.000
0.00875   0.00725   296.546   1137.797   268.000   268.000   10.720   10.720   0.000   0.000
0.01125   0.00725   297.292   1137.797   268.000   268.000   10.720   10.720   0.000   0.000
0.01375   0.00725   298.270   1137.797   268.000   268.000   10.720   10.720   0.000   0.000
0.01625   0.00725   299.506   1137.797   268.000   268.000   10.720   10.720   0.000   0.000
0.01875   0.00725   301.036   1137.797   268.000   268.000   10.720   10.720   0.000   0.000
0.02125   0.00725   302.898   1137.797   268.000   268.000   10.720   10.720   0.000   0.000
0.02375   0.00725   305.132   1137.797   268.000   268.000   10.720   10.720   0.000   0.000
0.02625   0.00725   307.780   1137.797   268.000   268.000   10.720   10.720   0.000   0.000
0.02875   0.00725   310.867   1137.797   268.000   268.000   10.720   10.720   0.000   0.000
0.03125   0.00725   314.307   1137.797   268.000   268.000   10.720   10.720   0.000   0.000
0.03375   0.00725   317.532   1137.797   268.000   268.000   10.720   10.720   0.000   0.000
0.03625   0.00725   320.455   1137.797   268.000   268.000   10.720   10.720   0.000   0.000
0.03875   0.00725   323.096   1137.797   268.000   268.000   10.720   10.720   0.000   0.000
0.04125   0.00725   325.490   1137.797   268.000   268.000   10.720   10.720   0.000   0.000
0.04375   0.00725   327.667   1137.797   268.000   268.000   10.720   10.720   0.000   0.000
0.04625   0.00725   329.657   1137.797   268.000   268.000   10.720   10.720   0.000   0.000
0.04875   0.00725   331.475   1137.797   268.000   268.000   10.720   0.000   0.000   16.187
0.00125   0.00675   295.481   1137.797   268.000   268.000   0.000   10.720   0.000   0.000
0.00375   0.00675   295.652   1137.797   268.000   268.000   10.720   10.720   0.000   0.000
0.00625   0.00675   296.001   1137.797   268.000   268.000   10.720   10.720   0.000   0.000
0.00875   0.00675   296.540   1137.797   268.000   268.000   10.720   10.720   0.000   0.000
0.01125   0.00675   297.285   1137.797   268.000   268.000   10.720   10.720   0.000   0.000
0.01375   0.00675   298.261   1137.797   268.000   268.000   10.720   10.720   0.000   0.000
0.01625   0.00675   299.497   1137.797   268.000   268.000   10.720   10.720   0.000   0.000
0.01875   0.00675   301.025   1137.797   268.000   268.000   10.720   10.720   0.000   0.000
0.02125   0.00675   302.884   1137.797   268.000   268.000   10.720   10.720   0.000   0.000
0.02375   0.00675   305.115   1137.797   268.000   268.000   10.720   10.720   0.000   0.000
0.02625   0.00675   307.757   1137.797   268.000   268.000   10.720   10.720   0.000   0.000
0.02875   0.00675   310.828   1137.797   268.000   268.000   10.720   10.720   0.000   0.000
0.03125   0.00675   314.222   1137.797   268.000   268.000   10.720   10.720   0.000   0.000
0.03375   0.00675   317.431   1137.797   268.000   268.000   10.720   10.720   0.000   0.000
0.03625   0.00675   320.349   1137.797   268.000   268.000   10.720   10.720   0.000   0.000
0.03875   0.00675   322.987   1137.797   268.000   268.000   10.720   10.720   0.000   0.000
0.04125   0.00675   325.379   1137.797   268.000   268.000   10.720   10.720   0.000   0.000
0.04375   0.00675   327.556   1137.797   268.000   268.000   10.720   10.720   0.000   0.000
0.04625   0.00675   329.549   1137.797   268.000   268.000   10.720   10.720   0.000   0.000
0.04875   0.00675   331.388   1137.797   268.000   268.000   10.720   0.000   0.000   16.187
0.00125   0.00625   295.476   1137.797   268.000   2.085   0.000   10.720   0.000   0.000
0.00375   0.00625   295.647   1137.797   268.000   2.085   10.720   10.720   0.000   0.000
0.00625   0.00625   295.995   1137.797   268.000   2.085   10.720   10.720   0.000   0.000
0.00875   0.00625   296.533   1137.797   268.000   2.085   10.720   10.720   0.000   0.000
0.01125   0.00625   297.277   1137.797   268.000   2.085   10.720   10.720   0.000   0.000
0.01375   0.00625   298.252   1137.797   268.000   2.085   10.720   10.720   0.000   0.000
0.01625   0.00625   299.485   1137.797   268.000   2.085   10.720   10.720   0.000   0.000
0.01875   0.00625   301.011   1137.797   268.000   2.085   10.720   10.720   0.000   0.000
0.02125   0.00625   302.867   1137.797   268.000   2.085   10.720   10.720   0.000   0.000
0.02375   0.00625   305.095   1137.797   268.000   2.085   10.720   10.720   0.000   0.000
0.02625   0.00625   307.733   1137.797   268.000   2.085   10.720   10.720   0.000   0.000
0.02875   0.00625   310.794   1137.797   268.000   2.085   10.720   10.720   0.000   0.000
0.03125   0.00625   314.163   1137.797   268.000   2.085   10.720   10.720   0.000   0.000
0.03375   0.00625   317.362   1137.797   268.000   2.085   10.720   10.720   0.000   0.000
0.03625   0.00625   320.275   1137.797   268.000   2.085   10.720   10.720   0.000   0.000
0.03875   0.00625   322.911   1137.797   268.000   2.085   10.720   10.720   0.000   0.000
0.04125   0.00625   325.300   1137.797   268.000   2.085   10.720   10.720   0.000   0.000
0.04375   0.00625   327.476   1137.797   268.000   2.085   10.720   10.720   0.000   0.000
0.04625   0.00625   329.471   1137.797   268.000   2.085   10.720   10.720   0.000   0.000
0.04875   0.00625   331.340   1137.797   268.000   2.085   10.720   0.000   0.000   16.187
0.00125   0.00575   294.694   686.719   2.085   1.046   0.000   0.042   0.000   0.000
0.00375   0.00575   294.825   686.719   2.085   1.046   0.042   0.042   0.000   0.000
0.00625   0.00575   295.090   686.719   2.085   1.046   0.042   0.042   0.000   0.000
0.00875   0.00575   295.502   686.719   2.085   1.046   0.042   0.042   0.000   0.000
0.01125   0.00575   296.077   686.719   2.085   1.046   0.042   0.042   0.000   0.000
0.01375   0.00575   296.835   686.719   2.085   1.046   0.042   0.042   0.000   0.000
0.01625   0.00575   297.804   686.719   2.085   1.046   0.042   0.042   0.000   0.000
0.01875   0.00575   299.014   686.719   2.085   1.046   0.042   0.042   0.000   0.000
0.02125   0.00575   300.503   686.719   2.085   1.046   0.042   0.042   0.000   0.000
0.02375   0.00575   302.309   686.719   2.085   1.046   0.042   0.042   0.000   0.000
0.02625   0.00575   304.469   686.719   2.085   1.046   0.042   0.042   0.000   0.000
0.02875   0.00575   306.998   686.719   2.085   1.046   0.042   0.042   0.000   0.000
0.03125   0.00575   309.796   686.719   2.085   1.046   0.042   0.042   0.000   0.000
0.03375   0.00575   312.471   686.719   2.085   1.046   0.042   0.042   0.000   0.000
0.03625   0.00575   314.925   686.719   2.085   1.046   0.042   0.042   0.000   0.000
0.03875   0.00575   317.169   686.719   2.085   1.046   0.042   0.042   0.000   0.000
0.04125   0.00575   319.236   686.719   2.085   1.046   0.042   0.042   0.000   0.000
0.04375   0.00575   321.176   686.719   2.085   1.046   0.042   0.042   0.000   0.000
0.04625   0.00575   323.253   686.719   2.085   1.046   0.042   0.042   0.000   0.000
0.04875   0.00575   330.144   686.719   2.085   1.046   0.042   0.000   0.000   6.072
0.00125   0.00525   293.854   686.719   1.046   1.046   0.000   0.042   0.000   0.000
0.00375   0.00525   293.930   686.719   1.046   1.046   0.042   0.042   0.000   0.000
0.00625   0.00525   294.087   686.719   1.046   1.046   0.042   0.042   0.000   0.000
0.00875   0.00525   294.333   686.719   1.046   1.046   0.042   0.042   0.000   0.000
0.01125   0.00525   294.679   686.719   1.046   1.046   0.042   0.042   0.000   0.000
0.01375   0.00525   295.143   686.719   1.046   1.046   0.042   0.042   0.000   0.000
0.01625   0.00525   295.745   686.719   1.046   1.046   0.042   0.042   0.000   0.000
0.01875   0.00525   296.511   686.719   1.046   1.046   0.042   0.042   0.000   0.000
0.02125   0.00525   297.468   686.719   1.046   1.046   0.042   0.042   0.000   0.000
0.02375   0.00525   298.650   686.719   1.046   1.046   0.042   0.042   0.000   0.000
0.02625   0.00525   300.089   686.719   1.046   1.046   0.042   0.042   0.000   0.000
0.02875   0.00525   301.798   686.719   1.046   1.046   0.042   0.042   0.000   0.000
0.03125   0.00525   303.712   686.719   1.046   1.046   0.042   0.042   0.000   0.000
0.03375   0.00525   305.578   686.719   1.046   1.046   0.042   0.042   0.000   0.000
0.03625   0.00525   307.331   686.719   1.046   1.046   0.042   0.042   0.000   0.000
0.03875   0.00525   308.986   686.719   1.046   1.046   0.042   0.042   0.000   0.000
0.04125   0.00525   310.579   686.719   1.046   1.046   0.042   0.042   0.000   0.000
0.04375   0.00525   312.172   686.719   1.046   1.046   0.042   0.042   0.000   0.000
0.04625   0.00525   314.331   686.719   1.046   1.046   0.042   0.042   0.000   0.000
0.04875   0.00525   325.978   686.719   1.046   1.046   0.042   0.000   0.000   6.077
0.00125   0.00475   293.439   686.719   1.046   1.046   0.000   0.042   0.000   0.000
0.00375   0.00475   293.484   686.719   1.046   1.046   0.042   0.042   0.000   0.000
0.00625   0.00475   293.576   686.719   1.046   1.046   0.042   0.042   0.000   0.000
0.00875   0.00475   293.721   686.719   1.046   1.046   0.042   0.042   0.000   0.000
0.01125   0.00475   293.928   686.719   1.046   1.046   0.042   0.042   0.000   0.000
0.01375   0.00475   294.208   686.719   1.046   1.046   0.042   0.042   0.000   0.000
0.01625   0.00475   294.576   686.719   1.046   1.046   0.042   0.042   0.000   0.000
0.01875   0.00475   295.050   686.719   1.046   1.046   0.042   0.042   0.000   0.000
0.02125   0.00475   295.651   686.719   1.046   1.046   0.042   0.042   0.000   0.000
0.02375   0.00475   296.402   686.719   1.046   1.046   0.042   0.042   0.000   0.000
0.02625   0.00475   297.327   686.719   1.046   1.046   0.042   0.042   0.000   0.000
0.02875   0.00475   298.439   686.719   1.046   1.046   0.042   0.042   0.000   0.000
0.03125   0.00475   299.705   686.719   1.046   1.046   0.042   0.042   0.000   0.000
0.03375   0.00475   300.985   686.719   1.046   1.046   0.042   0.042   0.000   0.000
0.03625   0.00475   302.248   686.719   1.046   1.046   0.042   0.042   0.000   0.000
0.03875   0.00475   303.509   686.719   1.046   1.046   0.042   0.042   0.000   0.000
0.04125   0.00475   304.796   686.719   1.046   1.046   0.042   0.042   0.000   0.000
0.04375   0.00475   306.166   686.719   1.046   1.046   0.042   0.042   0.000   0.000
0.04625   0.00475   308.180   686.719   1.046   1.046   0.042   0.042   0.000   0.000
0.04875   0.00475   319.760   686.719   1.046   1.046   0.042   0.000   0.000   6.084
0.00125   0.00425   293.278   686.719   1.046   2.085   0.000   0.042   0.000   0.000
0.00375   0.00425   293.306   686.719   1.046   2.085   0.042   0.042   0.000   0.000
0.00625   0.00425   293.365   686.719   1.046   2.085   0.042   0.042   0.000   0.000
0.00875   0.00425   293.458   686.719   1.046   2.085   0.042   0.042   0.000   0.000
0.01125   0.00425   293.590   686.719   1.046   2.085   0.042   0.042   0.000   0.000
0.01375   0.00425   293.768   686.719   1.046   2.085   0.042   0.042   0.000   0.000
0.01625   0.00425   294.001   686.719   1.046   2.085   0.042   0.042   0.000   0.000
0.01875   0.00425   294.300   686.719   1.046   2.085   0.042   0.042   0.000   0.000
0.02125   0.00425   294.677   686.719   1.046   2.085   0.042   0.042   0.000   0.000
0.02375   0.00425   295.147   686.719   1.046   2.085   0.042   0.042   0.000   0.000
0.02625   0.00425   295.723   686.719   1.046   2.085   0.042   0.042   0.000   0.000
0.02875   0.00425   296.416   686.719   1.046   2.085   0.042   0.042   0.000   0.000
0.03125   0.00425   297.221   686.719   1.046   2.085   0.042   0.042   0.000   0.000
0.03375   0.00425   298.098   686.719   1.046   2.085   0.042   0.042   0.000   0.000
0.03625   0.00425   299.044   686.719   1.046   2.085   0.042   0.042   0.000   0.000
0.03875   0.00425   300.071   686.719   1.046   2.085   0.042   0.042   0.000   0.000
0.04125   0.00425   301.194   686.719   1.046   2.085   0.042   0.042   0.000   0.000
0.04375   0.00425   302.444   686.719   1.046   2.085   0.042   0.042   0.000   0.000
0.04625   0.00425   304.071   686.719   1.046   2.085   0.042   0.042   0.000   0.000
0.04875   0.00425   310.750   686.719   1.046   2.085   0.042   0.000   0.000   6.093
0.00125   0.00375   293.282   1137.797   2.085   268.000   0.000   10.720   0.000   0.000
0.00375   0.00375   293.307   1137.797   2.085   268.000   10.720   10.720   0.000   0.000
0.00625   0.00375   293.360   1137.797   2.085   268.000   10.720   10.720   0.000   0.000
0.00875   0.00375   293.442   1137.797   2.085   268.000   10.720   10.720   0.000   0.000
0.01125   0.00375   293.558   1137.797   2.085   268.000   10.720   10.720   0.000   0.000
0.01375   0.00375   293.712   1137.797   2.085   268.000   10.720   10.720   0.000   0.000
0.01625   0.00375   293.910   1137.797   2.085   268.000   10.720   10.720   0.000   0.000
0.01875   0.00375   294.159   1137.797   2.085   268.000   10.720   10.720   0.000   0.000
0.02125   0.00375   294.469   1137.797   2.085   268.000   10.720   10.720   0.000   0.000
0.02375   0.00375   294.846   1137.797   2.085   268.000   10.720   10.720   0.000   0.000
0.02625   0.00375   295.299   1137.797   2.085   268.000   10.720   10.720   0.000   0.000
0.02875   0.00375   295.838   1137.797   2.085   268.000   10.720   10.720   0.000   0.000
0.03125   0.00375   296.471   1137.797   2.085   268.000   10.720   10.720   0.000   0.000
0.03375   0.00375   297.204   1137.797   2.085   268.000   10.720   10.720   0.000   0.000
0.03625   0.00375   298.046   1137.797   2.085   268.000   10.720   10.720   0.000   0.000
0.03875   0.00375   299.005   1137.797   2.085   268.000   10.720   10.720   0.000   0.000
0.04125   0.00375   300.091   1137.797   2.085   268.000   10.720   10.720   0.000   0.000
0.04375   0.00375   301.313   1137.797   2.085   268.000   10.720   10.720   0.000   0.000
0.04625   0.00375   302.685   1137.797   2.085   268.000   10.720   10.720   0.000   0.000
0.04875   0.00375   304.250   1137.797   2.085   268.000   10.720   0.000   0.000   16.266
0.00125   0.00325   293.282   1137.797   268.000   268.000   0.000   10.720   0.000   0.000
0.00375   0.00325   293.307   1137.797   268.000   268.000   10.720   10.720   0.000   0.000
0.00625   0.00325   293.360   1137.797   268.000   268.000   10.720   10.720   0.000   0.000
0.00875   0.00325   293.442   1137.797   268.000   268.000   10.720   10.720   0.000   0.000
0.01125   0.00325   293.557   1137.797   268.000   268.000   10.720   10.720   0.000   0.000
0.01375   0.00325   293.711   1137.797   268.000   268.000   10.720   10.720   0.000   0.000
0.01625   0.00325   293.909   1137.797   268.000   268.000   10.720   10.720   0.000   0.000
0.01875   0.00325   294.159   1137.797   268.000   268.000   10.720   10.720   0.000   0.000
0.02125   0.00325   294.467   1137.797   268.000   268.000   10.720   10.720   0.000   0.000
0.02375   0.00325   294.843   1137.797   268.000   268.000   10.720   10.720   0.000   0.000
0.02625   0.00325   295.296   1137.797   268.000   268.000   10.720   10.720   0.000   0.000
0.02875   0.00325   295.834   1137.797   268.000   268.000   10.720   10.720   0.000   0.000
0.03125   0.00325   296.466   1137.797   268.000   268.000   10.720   10.720   0.000   0.000
0.03375   0.00325   297.198   1137.797   268.000   268.000   10.720   10.720   0.000   0.000
0.03625   0.00325   298.039   1137.797   268.000   268.000   10.720   10.720   0.000   0.000
0.03875   0.00325   298.998   1137.797   268.000   268.000   10.720   10.720   0.000   0.000
0.04125   0.00325   300.084   1137.797   268.000   268.000   10.720   10.720   0.000   0.000
0.04375   0.00325   301.305   1137.797   268.000   268.000   10.720   10.720   0.000   0.000
0.04625   0.00325   302.674   1137.797   268.000   268.000   10.720   10.720   0.000   0.000
0.04875   0.00325   304.208   1137.797   268.000   268.000   10.720   0.000   0.000   16.267
0.00125   0.00275   293.282   1137.797   268.000   268.000   0.000   10.720   0.000   0.000
0.00375   0.00275   293.307   1137.797   268.000   268.000   10.720   10.720   0.000   0.000
0.00625   0.00275   293.360   1137.797   268.000   268.000   10.720   10.720   0.000   0.000
0.00875   0.00275   293.442   1137.797   268.000   268.000   10.720   10.720   0.000   0.000
0.01125   0.00275   293.557   1137.797   268.000   268.000   10.720   10.720   0.000   0.000
0.01375   0.00275   293.711   1137.797   268.000   268.000   10.720   10.720   0.000   0.000
0.01625   0.00275   293.909   1137.797   268.000   268.000   10.720   10.720   0.000   0.000
0.01875   0.00275   294.158   1137.797   268.000   268.000   10.720   10.720   0.000   0.000
0.02125   0.00275   294.466   1137.797   268.000   268.000   10.720   10.720   0.000   0.000
0.02375   0.00275   294.842   1137.797   268.000   268.000   10.720   10.720   0.000   0.000
0.02625   0.00275   295.294   1137.797   268.000   268.000   10.720   10.720   0.000   0.000
0.02875   0.00275   295.831   1137.797   268.000   268.000   10.720   10.720   0.000   0.000
0.03125   0.00275   296.461   1137.797   268.000   268.000   10.720   10.720   0.000   0.000
0.03375   0.00275   297.193   1137.797   268.000   268.000   10.720   10.720   0.000   0.000
0.03625   0.00275   298.033   1137.797   268.000   268.000   10.720   10.720   0.000   0.000
0.03875   0.00275   298.992   1137.797   268.000   268.000   10.720   10.720   0.000   0.000
0.04125   0.00275   300.077   1137.797   268.000   268.000   10.720   10.720   0.000   0.000
0.04375   0.00275   301.298   1137.797   268.000   268.000   10.720   10.720   0.000   0.000
0.04625   0.00275   302.662   1137.797   268.000   268.000   10.720   10.720   0.000   0.000
0.04875   0.00275   304.174   1137.797   268.000   268.000   10.720   0.000   0.000   16.267
0.00125   0.00225   293.282   1137.797   268.000   268.000   0.000   10.720   0.000   0.000
0.00375   0.00225   293.307   1137.797   268.000   268.000   10.720   10.720   0.000   0.000
0.00625   0.00225   293.360   1137.797   268.000   268.000   10.720   10.720   0.000   0.000
0.00875   0.00225   293.442   1137.797   268.000   268.000   10.720   10.720   0.000   0.000
0.01125   0.00225   293.557   1137.797   268.000   268.000   10.720   10.720   0.000   0.000
0.01375   0.00225   293.711   1137.797   268.000   268.000   10.720   10.720   0.000   0.000
0.01625   0.00225   293.908   1137.797   268.000   268.000   10.720   10.720   0.000   0.000
0.01875   0.00225   294.157   1137.797   268.000   268.000   10.720   10.720   0.000   0.000
0.02125   0.00225   294.465   1137.797   268.000   268.000   10.720   10.720   0.000   0.000
0.02375   0.00225   294.840   1137.797   268.000   268.000   10.720   10.720   0.000   0.000
0.02625   0.00225   295.292   1137.797   268.000   268.000   10.720   10.720   0.000   0.000
0.02875   0.00225   295.828   1137.797   268.000   268.000   10.720   10.720   0.000   0.000
0.03125   0.00225   296.458   1137.797   268.000   268.000   10.720   10.720   0.000   0.000
0.03375   0.00225   297.188   1137.797   268.000   268.000   10.720   10.720   0.000   0.000
0.03625   0.00225   298.029   1137.797   268.000   268.000   10.720   10.720   0.000   0.000
0.03875   0.00225   298.987   1137.797   268.000   268.000   10.720   10.720   0.000   0.000
0.04125   0.00225   300.072   1137.797   268.000   268.000   10.720   10.720   0.000   0.000
0.04375   0.00225   301.292   1137.797   268.000   268.000   10.720   10.720   0.000   0.000
0.04625   0.00225   302.652   1137.797   268.000   268.000   10.720   10.720   0.000   0.000
0.04875   0.00225   304.147   1137.797   268.000   268.000   10.720   0.000   0.000   16.267
0.00125   0.00175   293.282   1137.797   268.000   268.000   0.000   10.720   0.000   0.000
0.00375   0.00175   293.307   1137.797   268.000   268.000   10.720   10.720   0.000   0.000
0.00625   0.00175   293.360   1137.797   268.000   268.000   10.720   10.720   0.000   0.000
0.00875   0.00175   293.442   1137.797   268.000   268.000   10.720   10.720   0.000   0.000
0.01125   0.00175   293.557   1137.797   268.000   268.000   10.720   10.720   0.000   0.000
0.01375   0.00175   293.710   1137.797   268.000   268.000   10.720   10.720   0.000   0.000
0.01625   0.00175   293.908   1137.797   268.000   268.000   10.720   10.720   0.000   0.000
0.01875   0.00175   294.156   1137.797   268.000   268.000   10.720   10.720   0.000   0.000
0.02125   0.00175   294.464   1137.797   268.000   268.000   10.720   10.720   0.000   0.000