VARIABLES = X, Y, T, ap,an,as,aw,ae,sp,su
ZONE I=20,J=20, F=POINT,t="3.092"
0.00125   0.00975   293.002   1137.797   0.000   268.000   0.000   10.720   0.000   -0.000
0.00375   0.00975   293.004   1137.797   0.000   268.000   10.720   10.720   0.000   -0.000
0.00625   0.00975   293.009   1137.797   0.000   268.000   10.720   10.720   0.000   -0.000
0.00875   0.00975   293.019   1137.797   0.000   268.000   10.720   10.720   0.000   -0.000
0.01125   0.00975   293.042   1137.797   0.000   268.000   10.720   10.720   0.000   -0.000
0.01375   0.00975   293.086   1137.797   0.000   268.000   10.720   10.720   0.000   -0.000
0.01625   0.00975   293.169   1137.797   0.000   268.000   10.720   10.720   0.000   -0.000
0.01875   0.00975   293.320   1137.797   0.000   268.000   10.720   10.720   0.000   -0.000
0.02125   0.00975   293.578   1137.797   0.000   268.000   10.720   10.720   0.000   -0.000
0.02375   0.00975   294.004   1137.797   0.000   268.000   10.720   10.720   0.000   -0.001
0.02625   0.00975   294.681   1137.797   0.000   268.000   10.720   10.720   0.000   -0.001
0.02875   0.00975   295.751   1137.797   0.000   268.000   10.720   10.720   0.000   -0.002
0.03125   0.00975   297.706   1137.797   0.000   268.000   10.720   10.720   0.000   81.410
0.03375   0.00975   298.846   1137.797   0.000   268.000   10.720   10.720   0.000   81.395
0.03625   0.00975   299.680   1137.797   0.000   268.000   10.720   10.720   0.000   81.384
0.03875   0.00975   300.380   1137.797   0.000   268.000   10.720   10.720   0.000   81.375
0.04125   0.00975   301.075   1137.797   0.000   268.000   10.720   10.720   0.000   81.366
0.04375   0.00975   301.875   1137.797   0.000   268.000   10.720   10.720   0.000   81.356
0.04625   0.00975   302.873   1137.797   0.000   268.000   10.720   10.720   0.000   81.342
0.04875   0.00975   304.129   1137.797   0.000   268.000   10.720   0.000   0.000   97.592
0.00125   0.00925   293.002   1137.797   268.000   268.000   0.000   10.720   0.000   0.000
0.00375   0.00925   293.004   1137.797   268.000   268.000   10.720   10.720   0.000   0.000
0.00625   0.00925   293.009   1137.797   268.000   268.000   10.720   10.720   0.000   0.000
0.00875   0.00925   293.019   1137.797   268.000   268.000   10.720   10.720   0.000   0.000
0.01125   0.00925   293.042   1137.797   268.000   268.000   10.720   10.720   0.000   0.000
0.01375   0.00925   293.086   1137.797   268.000   268.000   10.720   10.720   0.000   0.000
0.01625   0.00925   293.169   1137.797   268.000   268.000   10.720   10.720   0.000   0.000
0.01875   0.00925   293.320   1137.797   268.000   268.000   10.720   10.720   0.000   0.000
0.02125   0.00925   293.578   1137.797   268.000   268.000   10.720   10.720   0.000   0.000
0.02375   0.00925   294.003   1137.797   268.000   268.000   10.720   10.720   0.000   0.000
0.02625   0.00925   294.678   1137.797   268.000   268.000   10.720   10.720   0.000   0.000
0.02875   0.00925   295.732   1137.797   268.000   268.000   10.720   10.720   0.000   0.000
0.03125   0.00925   297.456   1137.797   268.000   268.000   10.720   10.720   0.000   0.000
0.03375   0.00925   298.581   1137.797   268.000   268.000   10.720   10.720   0.000   0.000
0.03625   0.00925   299.412   1137.797   268.000   268.000   10.720   10.720   0.000   0.000
0.03875   0.00925   300.112   1137.797   268.000   268.000   10.720   10.720   0.000   0.000
0.04125   0.00925   300.806   1137.797   268.000   268.000   10.720   10.720   0.000   0.000
0.04375   0.00925   301.606   1137.797   268.000   268.000   10.720   10.720   0.000   0.000
0.04625   0.00925   302.604   1137.797   268.000   268.000   10.720   10.720   0.000   0.000
0.04875   0.00925   303.861   1137.797   268.000   268.000   10.720   0.000   0.000   16.267
0.00125   0.00875   293.002   1137.797   268.000   268.000   0.000   10.720   0.000   0.000
0.00375   0.00875   293.004   1137.797   268.000   268.000   10.720   10.720   0.000   0.000
0.00625   0.00875   293.009   1137.797   268.000   268.000   10.720   10.720   0.000   0.000
0.00875   0.00875   293.019   1137.797   268.000   268.000   10.720   10.720   0.000   0.000
0.01125   0.00875   293.042   1137.797   268.000   268.000   10.720   10.720   0.000   0.000
0.01375   0.00875   293.086   1137.797   268.000   268.000   10.720   10.720   0.000   0.000
0.01625   0.00875   293.169   1137.797   268.000   268.000   10.720   10.720   0.000   0.000
0.01875   0.00875   293.319   1137.797   268.000   268.000   10.720   10.720   0.000   0.000
0.02125   0.00875   293.577   1137.797   268.000   268.000   10.720   10.720   0.000   0.000
0.02375   0.00875   294.001   1137.797   268.000   268.000   10.720   10.720   0.000   0.000
0.02625   0.00875   294.672   1137.797   268.000   268.000   10.720   10.720   0.000   0.000
0.02875   0.00875   295.704   1137.797   268.000   268.000   10.720   10.720   0.000   0.000
0.03125   0.00875   297.251   1137.797   268.000   268.000   10.720   10.720   0.000   0.000
0.03375   0.00875   298.352   1137.797   268.000   268.000   10.720   10.720   0.000   0.000
0.03625   0.00875   299.180   1137.797   268.000   268.000   10.720   10.720   0.000   0.000
0.03875   0.00875   299.878   1137.797   268.000   268.000   10.720   10.720   0.000   0.000
0.04125   0.00875   300.572   1137.797   268.000   268.000   10.720   10.720   0.000   0.000
0.04375   0.00875   301.371   1137.797   268.000   268.000   10.720   10.720   0.000   0.000
0.04625   0.00875   302.370   1137.797   268.000   268.000   10.720   10.720   0.000   0.000
0.04875   0.00875   303.630   1137.797   268.000   268.000   10.720   0.000   0.000   16.268
0.00125   0.00825   293.002   1137.797   268.000   268.000   0.000   10.720   0.000   0.000
0.00375   0.00825   293.004   1137.797   268.000   268.000   10.720   10.720   0.000   0.000
0.00625   0.00825   293.009   1137.797   268.000   268.000   10.720   10.720   0.000   0.000
0.00875   0.00825   293.019   1137.797   268.000   268.000   10.720   10.720   0.000   0.000
0.01125   0.00825   293.042   1137.797   268.000   268.000   10.720   10.720   0.000   0.000
0.01375   0.00825   293.086   1137.797   268.000   268.000   10.720   10.720   0.000   0.000
0.01625   0.00825   293.169   1137.797   268.000   268.000   10.720   10.720   0.000   0.000
0.01875   0.00825   293.319   1137.797   268.000   268.000   10.720   10.720   0.000   0.000
0.02125   0.00825   293.576   1137.797   268.000   268.000   10.720   10.720   0.000   0.000
0.02375   0.00825   293.999   1137.797   268.000   268.000   10.720   10.720   0.000   0.000
0.02625   0.00825   294.665   1137.797   268.000   268.000   10.720   10.720   0.000   0.000
0.02875   0.00825   295.671   1137.797   268.000   268.000   10.720   10.720   0.000   0.000
0.03125   0.00825   297.085   1137.797   268.000   268.000   10.720   10.720   0.000   0.000
0.03375   0.00825   298.161   1137.797   268.000   268.000   10.720   10.720   0.000   0.000
0.03625   0.00825   298.983   1137.797   268.000   268.000   10.720   10.720   0.000   0.000
0.03875   0.00825   299.680   1137.797   268.000   268.000   10.720   10.720   0.000   0.000
0.04125   0.00825   300.372   1137.797   268.000   268.000   10.720   10.720   0.000   0.000
0.04375   0.00825   301.171   1137.797   268.000   268.000   10.720   10.720   0.000   0.000
0.04625   0.00825   302.170   1137.797   268.000   268.000   10.720   10.720   0.000   0.000
0.04875   0.00825   303.434   1137.797   268.000   268.000   10.720   0.000   0.000   16.269
0.00125   0.00775   293.002   1137.797   268.000   268.000   0.000   10.720   0.000   0.000
0.00375   0.00775   293.004   1137.797   268.000   268.000   10.720   10.720   0.000   0.000
0.00625   0.00775   293.009   1137.797   268.000   268.000   10.720   10.720   0.000   0.000
0.00875   0.00775   293.019   1137.797   268.000   268.000   10.720   10.720   0.000   0.000
0.01125   0.00775   293.041   1137.797   268.000   268.000   10.720   10.720   0.000   0.000
0.01375   0.00775   293.085   1137.797   268.000   268.000   10.720   10.720   0.000   0.000
0.01625   0.00775   293.168   1137.797   268.000   268.000   10.720   10.720   0.000   0.000
0.01875   0.00775   293.318   1137.797   268.000   268.000   10.720   10.720   0.000   0.000
0.02125   0.00775   293.575   1137.797   268.000   268.000   10.720   10.720   0.000   0.000
0.02375   0.00775   293.996   1137.797   268.000   268.000   10.720   10.720   0.000   0.000
0.02625   0.00775   294.656   1137.797   268.000   268.000   10.720   10.720   0.000   0.000
0.02875   0.00775   295.638   1137.797   268.000   268.000   10.720   10.720   0.000   0.000
0.03125   0.00775   296.953   1137.797   268.000   268.000   10.720   10.720   0.000   0.000
0.03375   0.00775   298.005   1137.797   268.000   268.000   10.720   10.720   0.000   0.000
0.03625   0.00775   298.822   1137.797   268.000   268.000   10.720   10.720   0.000   0.000
0.03875   0.00775   299.516   1137.797   268.000   268.000   10.720   10.720   0.000   0.000
0.04125   0.00775   300.208   1137.797   268.000   268.000   10.720   10.720   0.000   0.000
0.04375   0.00775   301.005   1137.797   268.000   268.000   10.720   10.720   0.000   0.000
0.04625   0.00775   302.004   1137.797   268.000   268.000   10.720   10.720   0.000   0.000
0.04875   0.00775   303.275   1137.797   268.000   268.000   10.720   0.000   0.000   16.269
0.00125   0.00725   293.002   1137.797   268.000   268.000   0.000   10.720   0.000   0.000
0.00375   0.00725   293.004   1137.797   268.000   268.000   10.720   10.720   0.000   0.000
0.00625   0.00725   293.009   1137.797   268.000   268.000   10.720   10.720   0.000   0.000
0.00875   0.00725   293.019   1137.797   268.000   268.000   10.720   10.720   0.000   0.000
0.01125   0.00725   293.041   1137.797   268.000   268.000   10.720   10.720   0.000   0.000
0.01375   0.00725   293.085   1137.797   268.000   268.000   10.720   10.720   0.000   0.000
0.01625   0.00725   293.168   1137.797   268.000   268.000   10.720   10.720   0.000   0.000
0.01875   0.00725   293.317   1137.797   268.000   268.000   10.720   10.720   0.000   0.000
0.02125   0.00725   293.573   1137.797   268.000   268.000   10.720   10.720   0.000   0.000
0.02375   0.00725   293.992   1137.797   268.000   268.000   10.720   10.720   0.000   0.000
0.02625   0.00725   294.647   1137.797   268.000   268.000   10.720   10.720   0.000   0.000
0.02875   0.00725   295.609   1137.797   268.000   268.000   10.720   10.720   0.000   0.000
0.03125   0.00725   296.853   1137.797   268.000   268.000   10.720   10.720   0.000   0.000
0.03375   0.00725   297.885   1137.797   268.000   268.000   10.720   10.720   0.000   0.000
0.03625   0.00725   298.696   1137.797   268.000   268.000   10.720   10.720   0.000   0.000
0.03875   0.00725   299.388   1137.797   268.000   268.000   10.720   10.720   0.000   0.000
0.04125   0.00725   300.077   1137.797   268.000   268.000   10.720   10.720   0.000   0.000
0.04375   0.00725   300.873   1137.797   268.000   268.000   10.720   10.720   0.000   0.000
0.04625   0.00725   301.873   1137.797   268.000   268.000   10.720   10.720   0.000   0.000
0.04875   0.00725   303.152   1137.797   268.000   268.000   10.720   0.000   0.000   16.269
0.00125   0.00675   293.002   1137.797   268.000   268.000   0.000   10.720   0.000   0.000
0.00375   0.00675   293.004   1137.797   268.000   268.000   10.720   10.720   0.000   0.000
0.00625   0.00675   293.009   1137.797   268.000   268.000   10.720   10.720   0.000   0.000
0.00875   0.00675   293.019   1137.797   268.000   268.000   10.720   10.720   0.000   0.000
0.01125   0.00675   293.041   1137.797   268.000   268.000   10.720   10.720   0.000   0.000
0.01375   0.00675   293.085   1137.797   268.000   268.000   10.720   10.720   0.000   0.000
0.01625   0.00675   293.167   1137.797   268.000   268.000   10.720   10.720   0.000   0.000
0.01875   0.00675   293.316   1137.797   268.000   268.000   10.720   10.720   0.000   0.000
0.02125   0.00675   293.571   1137.797   268.000   268.000   10.720   10.720   0.000   0.000
0.02375   0.00675   293.988   1137.797   268.000   268.000   10.720   10.720   0.000   0.000
0.02625   0.00675   294.639   1137.797   268.000   268.000   10.720   10.720   0.000   0.000
0.02875   0.00675   295.585   1137.797   268.000   268.000   10.720   10.720   0.000   0.000
0.03125   0.00675   296.783   1137.797   268.000   268.000   10.720   10.720   0.000   0.000
0.03375   0.00675   297.799   1137.797   268.000   268.000   10.720   10.720   0.000   0.000
0.03625   0.00675   298.605   1137.797   268.000   268.000   10.720   10.720   0.000   0.000
0.03875   0.00675   299.294   1137.797   268.000   268.000   10.720   10.720   0.000   0.000
0.04125   0.00675   299.982   1137.797   268.000   268.000   10.720   10.720   0.000   0.000
0.04375   0.00675   300.776   1137.797   268.000   268.000   10.720   10.720   0.000   0.000
0.04625   0.00675   301.775   1137.797   268.000   268.000   10.720   10.720   0.000   0.000
0.04875   0.00675   303.066   1137.797   268.000   268.000   10.720   0.000   0.000   16.269
0.00125   0.00625   293.002   1137.797   268.000   2.085   0.000   10.720   0.000   0.000
0.00375   0.00625   293.004   1137.797   268.000   2.085   10.720   10.720   0.000   0.000
0.00625   0.00625   293.009   1137.797   268.000   2.085   10.720   10.720   0.000   0.000
0.00875   0.00625   293.019   1137.797   268.000   2.085   10.720   10.720   0.000   0.000
0.01125   0.00625   293.041   1137.797   268.000   2.085   10.720   10.720   0.000   0.000
0.01375   0.00625   293.084   1137.797   268.000   2.085   10.720   10.720   0.000   0.000
0.01625   0.00625   293.166   1137.797   268.000   2.085   10.720   10.720   0.000   0.000
0.01875   0.00625   293.314   1137.797   268.000   2.085   10.720   10.720   0.000   0.000
0.02125   0.00625   293.568   1137.797   268.000   2.085   10.720   10.720   0.000   0.000
0.02375   0.00625   293.984   1137.797   268.000   2.085   10.720   10.720   0.000   0.000
0.02625   0.00625   294.631   1137.797   268.000   2.085   10.720   10.720   0.000   0.000
0.02875   0.00625   295.568   1137.797   268.000   2.085   10.720   10.720   0.000   0.000
0.03125   0.00625   296.741   1137.797   268.000   2.085   10.720   10.720   0.000   0.000
0.03375   0.00625   297.747   1137.797   268.000   2.085   10.720   10.720   0.000   0.000
0.03625   0.00625   298.549   1137.797   268.000   2.085   10.720   10.720   0.000   0.000
0.03875   0.00625   299.235   1137.797   268.000   2.085   10.720   10.720   0.000   0.000
0.04125   0.00625   299.920   1137.797   268.000   2.085   10.720   10.720   0.000   0.000
0.04375   0.00625   300.712   1137.797   268.000   2.085   10.720   10.720   0.000   0.000
0.04625   0.00625   301.710   1137.797   268.000   2.085   10.720   10.720   0.000   0.000
0.04875   0.00625   303.017   1137.797   268.000   2.085   10.720   0.000   0.000   16.270
0.00125   0.00575   293.000   686.719   2.085   1.046   0.000   0.042   0.000   0.000
0.00375   0.00575   293.001   686.719   2.085   1.046   0.042   0.042   0.000   0.000
0.00625   0.00575   293.002   686.719   2.085   1.046   0.042   0.042   0.000   0.000
0.00875   0.00575   293.005   686.719   2.085   1.046   0.042   0.042   0.000   0.000
0.01125   0.00575   293.012   686.719   2.085   1.046   0.042   0.042   0.000   0.000
0.01375   0.00575   293.027   686.719   2.085   1.046   0.042   0.042   0.000   0.000
0.01625   0.00575   293.057   686.719   2.085   1.046   0.042   0.042   0.000   0.000
0.01875   0.00575   293.116   686.719   2.085   1.046   0.042   0.042   0.000   0.000
0.02125   0.00575   293.226   686.719   2.085   1.046   0.042   0.042   0.000   0.000
0.02375   0.00575   293.420   686.719   2.085   1.046   0.042   0.042   0.000   0.000
0.02625   0.00575   293.744   686.719   2.085   1.046   0.042   0.042   0.000   0.000
0.02875   0.00575   294.243   686.719   2.085   1.046   0.042   0.042   0.000   0.000
0.03125   0.00575   294.889   686.719   2.085   1.046   0.042   0.042   0.000   0.000
0.03375   0.00575   295.416   686.719   2.085   1.046   0.042   0.042   0.000   0.000
0.03625   0.00575   295.808   686.719   2.085   1.046   0.042   0.042   0.000   0.000
0.03875   0.00575   296.130   686.719   2.085   1.046   0.042   0.042   0.000   0.000
0.04125   0.00575   296.461   686.719   2.085   1.046   0.042   0.042   0.000   0.000
0.04375   0.00575   296.882   686.719   2.085   1.046   0.042   0.042   0.000   0.000
0.04625   0.00575   297.534   686.719   2.085   1.046   0.042   0.042   0.000   0.000
0.04875   0.00575   301.593   686.719   2.085   1.046   0.042   0.000   0.000   6.102
0.00125   0.00525   293.000   686.719   1.046   1.046   0.000   0.042   0.000   0.000
0.00375   0.00525   293.000   686.719   1.046   1.046   0.042   0.042   0.000   0.000
0.00625   0.00525   293.000   686.719   1.046   1.046   0.042   0.042   0.000   0.000
0.00875   0.00525   293.001   686.719   1.046   1.046   0.042   0.042   0.000   0.000
0.01125   0.00525   293.002   686.719   1.046   1.046   0.042   0.042   0.000   0.000
0.01375   0.00525   293.004   686.719   1.046   1.046   0.042   0.042   0.000   0.000
0.01625   0.00525   293.010   686.719   1.046   1.046   0.042   0.042   0.000   0.000
0.01875   0.00525   293.022   686.719   1.046   1.046   0.042   0.042   0.000   0.000
0.02125   0.00525   293.047   686.719   1.046   1.046   0.042   0.042   0.000   0.000
0.02375   0.00525   293.095   686.719   1.046   1.046   0.042   0.042   0.000   0.000
0.02625   0.00525   293.182   686.719   1.046   1.046   0.042   0.042   0.000   0.000
0.02875   0.00525   293.328   686.719   1.046   1.046   0.042   0.042   0.000   0.000
0.03125   0.00525   293.524   686.719   1.046   1.046   0.042   0.042   0.000   0.000
0.03375   0.00525   293.676   686.719   1.046   1.046   0.042   0.042   0.000   0.000
0.03625   0.00525   293.781   686.719   1.046   1.046   0.042   0.042   0.000   0.000
0.03875   0.00525   293.866   686.719   1.046   1.046   0.042   0.042   0.000   0.000
0.04125   0.00525   293.962   686.719   1.046   1.046   0.042   0.042   0.000   0.000
0.04375   0.00525   294.107   686.719   1.046   1.046   0.042   0.042   0.000   0.000
0.04625   0.00525   294.458   686.719   1.046   1.046   0.042   0.042   0.000   0.000
0.04875   0.00525   300.258   686.719   1.046   1.046   0.042   0.000   0.000   6.104
0.00125   0.00475   293.000   686.719   1.046   1.046   0.000   0.042   0.000   0.000
0.00375   0.00475   293.000   686.719   1.046   1.046   0.042   0.042   0.000   0.000
0.00625   0.00475   293.000   686.719   1.046   1.046   0.042   0.042   0.000   0.000
0.00875   0.00475   293.000   686.719   1.046   1.046   0.042   0.042   0.000   0.000
0.01125   0.00475   293.000   686.719   1.046   1.046   0.042   0.042   0.000   0.000
0.01375   0.00475   293.001   686.719   1.046   1.046   0.042   0.042   0.000   0.000
0.01625   0.00475   293.002   686.719   1.046   1.046   0.042   0.042   0.000   0.000
0.01875   0.00475   293.004   686.719   1.046   1.046   0.042   0.042   0.000   0.000
0.02125   0.00475   293.008   686.719   1.046   1.046   0.042   0.042   0.000   0.000
0.02375   0.00475   293.018   686.719   1.046   1.046   0.042   0.042   0.000   0.000
0.02625   0.00475   293.038   686.719   1.046   1.046   0.042   0.042   0.000   0.000
0.02875   0.00475   293.074   686.719   1.046   1.046   0.042   0.042   0.000   0.000
0.03125   0.00475   293.126   686.719   1.046   1.046   0.042   0.042   0.000   0.000
0.03375   0.00475   293.169   686.719   1.046   1.046   0.042   0.042   0.000   0.000
0.03625   0.00475   293.206   686.719   1.046   1.046   0.042   0.042   0.000   0.000
0.03875   0.00475   293.253   686.719   1.046   1.046   0.042   0.042   0.000   0.000
0.04125   0.00475   293.329   686.719   1.046   1.046   0.042   0.042   0.000   0.000
0.04375   0.00475   293.464   686.719   1.046   1.046   0.042   0.042   0.000   0.000
0.04625   0.00475   293.811   686.719   1.046   1.046   0.042   0.042   0.000   0.000
0.04875   0.00475   299.610   686.719   1.046   1.046   0.042   0.000   0.000   6.104
0.00125   0.00425   293.000   686.719   1.046   2.085   0.000   0.042   0.000   0.000
0.00375   0.00425   293.000   686.719   1.046   2.085   0.042   0.042   0.000   0.000
0.00625   0.00425   293.000   686.719   1.046   2.085   0.042   0.042   0.000   0.000
0.00875   0.00425   293.000   686.719   1.046   2.085   0.042   0.042   0.000   0.000
0.01125   0.00425   293.000   686.719   1.046   2.085   0.042   0.042   0.000   0.000
0.01375   0.00425   293.000   686.719   1.046   2.085   0.042   0.042   0.000   0.000
0.01625   0.00425   293.000   686.719   1.046   2.085   0.042   0.042   0.000   0.000
0.01875   0.00425   293.001   686.719   1.046   2.085   0.042   0.042   0.000   0.000
0.02125   0.00425   293.002   686.719   1.046   2.085   0.042   0.042   0.000   0.000
0.02375   0.00425   293.006   686.719   1.046   2.085   0.042   0.042   0.000   0.000
0.02625   0.00425   293.013   686.719   1.046   2.085   0.042   0.042   0.000   0.000
0.02875   0.00425   293.028   686.719   1.046   2.085   0.042   0.042   0.000   0.000
0.03125   0.00425   293.055   686.719   1.046   2.085   0.042   0.042   0.000   0.000
0.03375   0.00425   293.098   686.719   1.046   2.085   0.042   0.042   0.000   0.000
0.03625   0.00425   293.173   686.719   1.046   2.085   0.042   0.042   0.000   0.000
0.03875   0.00425   293.304   686.719   1.046   2.085   0.042   0.042   0.000   0.000
0.04125   0.00425   293.527   686.719   1.046   2.085   0.042   0.042   0.000   0.000
0.04375   0.00425   293.891   686.719   1.046   2.085   0.042   0.042   0.000   0.000
0.04625   0.00425   294.514   686.719   1.046   2.085   0.042   0.042   0.000   0.000
0.04875   0.00425   298.563   686.719   1.046   2.085   0.042   0.000   0.000   6.105
0.00125   0.00375   293.000   1137.797   2.085   268.000   0.000   10.720   0.000   0.000
0.00375   0.00375   293.000   1137.797   2.085   268.000   10.720   10.720   0.000   0.000
0.00625   0.00375   293.000   1137.797   2.085   268.000   10.720   10.720   0.000   0.000
0.00875   0.00375   293.000   1137.797   2.085   268.000   10.720   10.720   0.000   0.000
0.01125   0.00375   293.000   1137.797   2.085   268.000   10.720   10.720   0.000   0.000
0.01375   0.00375   293.000   1137.797   2.085   268.000   10.720   10.720   0.000   0.000
0.01625   0.00375   293.001   1137.797   2.085   268.000   10.720   10.720   0.000   0.000
0.01875   0.00375   293.002   1137.797   2.085   268.000   10.720   10.720   0.000   0.000
0.02125   0.00375   293.005   1137.797   2.085   268.000   10.720   10.720   0.000   0.000
0.02375   0.00375   293.011   1137.797   2.085   268.000   10.720   10.720   0.000   0.000
0.02625   0.00375   293.025   1137.797   2.085   268.000   10.720   10.720   0.000   0.000
0.02875   0.00375   293.053   1137.797   2.085   268.000   10.720   10.720   0.000   0.000
0.03125   0.00375   293.106   1137.797   2.085   268.000   10.720   10.720   0.000   0.000
0.03375   0.00375   293.204   1137.797   2.085   268.000   10.720   10.720   0.000   0.000
0.03625   0.00375   293.372   1137.797   2.085   268.000   10.720   10.720   0.000   0.000
0.03875   0.00375   293.650   1137.797   2.085   268.000   10.720   10.720   0.000   0.000
0.04125   0.00375   294.086   1137.797   2.085   268.000   10.720   10.720   0.000   0.000
0.04375   0.00375   294.734   1137.797   2.085   268.000   10.720   10.720   0.000   0.000
0.04625   0.00375   295.656   1137.797   2.085   268.000   10.720   10.720   0.000   0.000
0.04875   0.00375   296.931   1137.797   2.085   268.000   10.720   0.000   0.000   16.284
0.00125   0.00325   293.000   1137.797   268.000   268.000   0.000   10.720   0.000   0.000
0.00375   0.00325   293.000   1137.797   268.000   268.000   10.720   10.720   0.000   0.000
0.00625   0.00325   293.000   1137.797   268.000   268.000   10.720   10.720   0.000   0.000
0.00875   0.00325   293.000   1137.797   268.000   268.000   10.720   10.720   0.000   0.000
0.01125   0.00325   293.000   1137.797   268.000   268.000   10.720   10.720   0.000   0.000
0.01375   0.00325   293.000   1137.797   268.000   268.000   10.720   10.720   0.000   0.000
0.01625   0.00325   293.001   1137.797   268.000   268.000   10.720   10.720   0.000   0.000
0.01875   0.00325   293.002   1137.797   268.000   268.000   10.720   10.720   0.000   0.000
0.02125   0.00325   293.005   1137.797   268.000   268.000   10.720   10.720   0.000   0.000
0.02375   0.00325   293.011   1137.797   268.000   268.000   10.720   10.720   0.000   0.000
0.02625   0.00325   293.025   1137.797   268.000   268.000   10.720   10.720   0.000   0.000
0.02875   0.00325   293.053   1137.797   268.000   268.000   10.720   10.720   0.000   0.000
0.03125   0.00325   293.107   1137.797   268.000   268.000   10.720   10.720   0.000   0.000
0.03375   0.00325   293.204   1137.797   268.000   268.000   10.720   10.720   0.000   0.000
0.03625   0.00325   293.374   1137.797   268.000   268.000   10.720   10.720   0.000   0.000
0.03875   0.00325   293.653   1137.797   268.000   268.000   10.720   10.720   0.000   0.000
0.04125   0.00325   294.090   1137.797   268.000   268.000   10.720   10.720   0.000   0.000
0.04375   0.00325   294.740   1137.797   268.000   268.000   10.720   10.720   0.000   0.000
0.04625   0.00325   295.662   1137.797   268.000   268.000   10.720   10.720   0.000   0.000
0.04875   0.00325   296.921   1137.797   268.000   268.000   10.720   0.000   0.000   16.284
0.00125   0.00275   293.000   1137.797   268.000   268.000   0.000   10.720   0.000   0.000
0.00375   0.00275   293.000   1137.797   268.000   268.000   10.720   10.720   0.000   0.000
0.00625   0.00275   293.000   1137.797   268.000   268.000   10.720   10.720   0.000   0.000
0.00875   0.00275   293.000   1137.797   268.000   268.000   10.720   10.720   0.000   0.000
0.01125   0.00275   293.000   1137.797   268.000   268.000   10.720   10.720   0.000   0.000
0.01375   0.00275   293.000   1137.797   268.000   268.000   10.720   10.720   0.000   0.000
0.01625   0.00275   293.001   1137.797   268.000   268.000   10.720   10.720   0.000   0.000
0.01875   0.00275   293.002   1137.797   268.000   268.000   10.720   10.720   0.000   0.000
0.02125   0.00275   293.005   1137.797   268.000   268.000   10.720   10.720   0.000   0.000
0.02375   0.00275   293.011   1137.797   268.000   268.000   10.720   10.720   0.000   0.000
0.02625   0.00275   293.025   1137.797   268.000   268.000   10.720   10.720   0.000   0.000
0.02875   0.00275   293.053   1137.797   268.000   268.000   10.720   10.720   0.000   0.000
0.03125   0.00275   293.107   1137.797   268.000   268.000   10.720   10.720   0.000   0.000
0.03375   0.00275   293.205   1137.797   268.000   268.000   10.720   10.720   0.000   0.000
0.03625   0.00275   293.375   1137.797   268.000   268.000   10.720   10.720   0.000   0.000
0.03875   0.00275   293.655   1137.797   268.000   268.000   10.720   10.720   0.000   0.000
0.04125   0.00275   294.093   1137.797   268.000   268.000   10.720   10.720   0.000   0.000
0.04375   0.00275   294.744   1137.797   268.000   268.000   10.720   10.720   0.000   0.000
0.04625   0.00275   295.667   1137.797   268.000   268.000   10.720   10.720   0.000   0.000
0.04875   0.00275   296.914   1137.797   268.000   268.000   10.720   0.000   0.000   16.285
0.00125   0.00225   293.000   1137.797   268.000   268.000   0.000   10.720   0.000   0.000
0.00375   0.00225   293.000   1137.797   268.000   268.000   10.720   10.720   0.000   0.000
0.00625   0.00225   293.000   1137.797   268.000   268.000   10.720   10.720   0.000   0.000
0.00875   0.00225   293.000   1137.797   268.000   268.000   10.720   10.720   0.000   0.000
0.01125   0.00225   293.000   1137.797   268.000   268.000   10.720   10.720   0.000   0.000
0.01375   0.00225   293.000   1137.797   268.000   268.000   10.720   10.720   0.000   0.000
0.01625   0.00225   293.001   1137.797   268.000   268.000   10.720   10.720   0.000   0.000
0.01875   0.00225   293.002   1137.797   268.000   268.000   10.720   10.720   0.000   0.000
0.02125   0.00225   293.005   1137.797   268.000   268.000   10.720   10.720   0.000   0.000
0.02375   0.00225   293.012   1137.797   268.000   268.000   10.720   10.720   0.000   0.000
0.02625   0.00225   293.025   1137.797   268.000   268.000   10.720   10.720   0.000   0.000
0.02875   0.00225   293.053   1137.797   268.000   268.000   10.720   10.720   0.000   0.000
0.03125   0.00225   293.107   1137.797   268.000   268.000   10.720   10.720   0.000   0.000
0.03375   0.00225   293.206   1137.797   268.000   268.000   10.720   10.720   0.000   0.000
0.03625   0.00225   293.376   1137.797   268.000   268.000   10.720   10.720   0.000   0.000
0.03875   0.00225   293.657   1137.797   268.000   268.000   10.720   10.720   0.000   0.000
0.04125   0.00225   294.095   1137.797   268.000   268.000   10.720   10.720   0.000   0.000
0.04375   0.00225   294.748   1137.797   268.000   268.000   10.720   10.720   0.000   0.000
0.04625   0.00225   295.670   1137.797   268.000   268.000   10.720   10.720   0.000   0.000
0.04875   0.00225   296.909   1137.797   268.000   268.000   10.720   0.000   0.000   16.285
0.00125   0.00175   293.000   1137.797   268.000   268.000   0.000   10.720   0.000   0.000
0.00375   0.00175   293.000   1137.797   268.000   268.000   10.720   10.720   0.000   0.000
0.00625   0.00175   293.000   1137.797   268.000   268.000   10.720   10.720   0.000   0.000
0.00875   0.00175   293.000   1137.797   268.000   268.000   10.720   10.720   0.000   0.000
0.01125   0.00175   293.000   1137.797   268.000   268.000   10.720   10.720   0.000   0.000
0.01375   0.00175   293.000   1137.797   268.000   268.000   10.720   10.720   0.000   0.000
0.01625   0.00175   293.001   1137.797   268.000   268.000   10.720   10.720   0.000   0.000
0.01875   0.00175   293.002   1137.797   268.000   268.000   10.720   10.720   0.000   0.000
0.02125   0.00175   293.005   1137.797   268.000   268.000   10.720   10.720   0.000   0.000