VARIABLES = X, Y, T, ap,an,as,aw,ae,sp,su
ZONE I=20,J=20, F=POINT,t="15.756"
0.00125   0.00975   294.806   1137.797   0.000   268.000   0.000   10.720   0.000   -0.001
0.00375   0.00975   294.953   1137.797   0.000   268.000   10.720   10.720   0.000   -0.001
0.00625   0.00975   295.254   1137.797   0.000   268.000   10.720   10.720   0.000   -0.002
0.00875   0.00975   295.721   1137.797   0.000   268.000   10.720   10.720   0.000   -0.002
0.01125   0.00975   296.373   1137.797   0.000   268.000   10.720   10.720   0.000   -0.003
0.01375   0.00975   297.235   1137.797   0.000   268.000   10.720   10.720   0.000   -0.003
0.01625   0.00975   298.338   1137.797   0.000   268.000   10.720   10.720   0.000   -0.004
0.01875   0.00975   299.717   1137.797   0.000   268.000   10.720   10.720   0.000   -0.005
0.02125   0.00975   301.414   1137.797   0.000   268.000   10.720   10.720   0.000   -0.006
0.02375   0.00975   303.477   1137.797   0.000   268.000   10.720   10.720   0.000   -0.008
0.02625   0.00975   305.962   1137.797   0.000   268.000   10.720   10.720   0.000   -0.010
0.02875   0.00975   308.969   1137.797   0.000   268.000   10.720   10.720   0.000   -0.012
0.03125   0.00975   312.932   1137.797   0.000   268.000   10.720   10.720   0.000   81.201
0.03375   0.00975   316.088   1137.797   0.000   268.000   10.720   10.720   0.000   81.155
0.03625   0.00975   318.869   1137.797   0.000   268.000   10.720   10.720   0.000   81.112
0.03875   0.00975   321.370   1137.797   0.000   268.000   10.720   10.720   0.000   81.073
0.04125   0.00975   323.643   1137.797   0.000   268.000   10.720   10.720   0.000   81.037
0.04375   0.00975   325.723   1137.797   0.000   268.000   10.720   10.720   0.000   81.003
0.04625   0.00975   327.635   1137.797   0.000   268.000   10.720   10.720   0.000   80.971
0.04875   0.00975   329.373   1137.797   0.000   268.000   10.720   0.000   0.000   97.136
0.00125   0.00925   294.805   1137.797   268.000   268.000   0.000   10.720   0.000   0.000
0.00375   0.00925   294.952   1137.797   268.000   268.000   10.720   10.720   0.000   0.000
0.00625   0.00925   295.253   1137.797   268.000   268.000   10.720   10.720   0.000   0.000
0.00875   0.00925   295.720   1137.797   268.000   268.000   10.720   10.720   0.000   0.000
0.01125   0.00925   296.372   1137.797   268.000   268.000   10.720   10.720   0.000   0.000
0.01375   0.00925   297.234   1137.797   268.000   268.000   10.720   10.720   0.000   0.000
0.01625   0.00925   298.336   1137.797   268.000   268.000   10.720   10.720   0.000   0.000
0.01875   0.00925   299.715   1137.797   268.000   268.000   10.720   10.720   0.000   0.000
0.02125   0.00925   301.412   1137.797   268.000   268.000   10.720   10.720   0.000   0.000
0.02375   0.00925   303.474   1137.797   268.000   268.000   10.720   10.720   0.000   0.000
0.02625   0.00925   305.957   1137.797   268.000   268.000   10.720   10.720   0.000   0.000
0.02875   0.00925   308.948   1137.797   268.000   268.000   10.720   10.720   0.000   0.000
0.03125   0.00925   312.681   1137.797   268.000   268.000   10.720   10.720   0.000   0.000
0.03375   0.00925   315.821   1137.797   268.000   268.000   10.720   10.720   0.000   0.000
0.03625   0.00925   318.599   1137.797   268.000   268.000   10.720   10.720   0.000   0.000
0.03875   0.00925   321.100   1137.797   268.000   268.000   10.720   10.720   0.000   0.000
0.04125   0.00925   323.373   1137.797   268.000   268.000   10.720   10.720   0.000   0.000
0.04375   0.00925   325.453   1137.797   268.000   268.000   10.720   10.720   0.000   0.000
0.04625   0.00925   327.365   1137.797   268.000   268.000   10.720   10.720   0.000   0.000
0.04875   0.00925   329.106   1137.797   268.000   268.000   10.720   0.000   0.000   16.195
0.00125   0.00875   294.804   1137.797   268.000   268.000   0.000   10.720   0.000   0.000
0.00375   0.00875   294.951   1137.797   268.000   268.000   10.720   10.720   0.000   0.000
0.00625   0.00875   295.252   1137.797   268.000   268.000   10.720   10.720   0.000   0.000
0.00875   0.00875   295.719   1137.797   268.000   268.000   10.720   10.720   0.000   0.000
0.01125   0.00875   296.370   1137.797   268.000   268.000   10.720   10.720   0.000   0.000
0.01375   0.00875   297.232   1137.797   268.000   268.000   10.720   10.720   0.000   0.000
0.01625   0.00875   298.333   1137.797   268.000   268.000   10.720   10.720   0.000   0.000
0.01875   0.00875   299.712   1137.797   268.000   268.000   10.720   10.720   0.000   0.000
0.02125   0.00875   301.408   1137.797   268.000   268.000   10.720   10.720   0.000   0.000
0.02375   0.00875   303.468   1137.797   268.000   268.000   10.720   10.720   0.000   0.000
0.02625   0.00875   305.947   1137.797   268.000   268.000   10.720   10.720   0.000   0.000
0.02875   0.00875   308.915   1137.797   268.000   268.000   10.720   10.720   0.000   0.000
0.03125   0.00875   312.472   1137.797   268.000   268.000   10.720   10.720   0.000   0.000
0.03375   0.00875   315.589   1137.797   268.000   268.000   10.720   10.720   0.000   0.000
0.03625   0.00875   318.363   1137.797   268.000   268.000   10.720   10.720   0.000   0.000
0.03875   0.00875   320.863   1137.797   268.000   268.000   10.720   10.720   0.000   0.000
0.04125   0.00875   323.135   1137.797   268.000   268.000   10.720   10.720   0.000   0.000
0.04375   0.00875   325.215   1137.797   268.000   268.000   10.720   10.720   0.000   0.000
0.04625   0.00875   327.129   1137.797   268.000   268.000   10.720   10.720   0.000   0.000
0.04875   0.00875   328.875   1137.797   268.000   268.000   10.720   0.000   0.000   16.195
0.00125   0.00825   294.802   1137.797   268.000   268.000   0.000   10.720   0.000   0.000
0.00375   0.00825   294.949   1137.797   268.000   268.000   10.720   10.720   0.000   0.000
0.00625   0.00825   295.250   1137.797   268.000   268.000   10.720   10.720   0.000   0.000
0.00875   0.00825   295.716   1137.797   268.000   268.000   10.720   10.720   0.000   0.000
0.01125   0.00825   296.367   1137.797   268.000   268.000   10.720   10.720   0.000   0.000
0.01375   0.00825   297.228   1137.797   268.000   268.000   10.720   10.720   0.000   0.000
0.01625   0.00825   298.329   1137.797   268.000   268.000   10.720   10.720   0.000   0.000
0.01875   0.00825   299.706   1137.797   268.000   268.000   10.720   10.720   0.000   0.000
0.02125   0.00825   301.401   1137.797   268.000   268.000   10.720   10.720   0.000   0.000
0.02375   0.00825   303.460   1137.797   268.000   268.000   10.720   10.720   0.000   0.000
0.02625   0.00825   305.933   1137.797   268.000   268.000   10.720   10.720   0.000   0.000
0.02875   0.00825   308.876   1137.797   268.000   268.000   10.720   10.720   0.000   0.000
0.03125   0.00825   312.299   1137.797   268.000   268.000   10.720   10.720   0.000   0.000
0.03375   0.00825   315.391   1137.797   268.000   268.000   10.720   10.720   0.000   0.000
0.03625   0.00825   318.160   1137.797   268.000   268.000   10.720   10.720   0.000   0.000
0.03875   0.00825   320.658   1137.797   268.000   268.000   10.720   10.720   0.000   0.000
0.04125   0.00825   322.929   1137.797   268.000   268.000   10.720   10.720   0.000   0.000
0.04375   0.00825   325.009   1137.797   268.000   268.000   10.720   10.720   0.000   0.000
0.04625   0.00825   326.925   1137.797   268.000   268.000   10.720   10.720   0.000   0.000
0.04875   0.00825   328.680   1137.797   268.000   268.000   10.720   0.000   0.000   16.196
0.00125   0.00775   294.800   1137.797   268.000   268.000   0.000   10.720   0.000   0.000
0.00375   0.00775   294.947   1137.797   268.000   268.000   10.720   10.720   0.000   0.000
0.00625   0.00775   295.247   1137.797   268.000   268.000   10.720   10.720   0.000   0.000
0.00875   0.00775   295.713   1137.797   268.000   268.000   10.720   10.720   0.000   0.000
0.01125   0.00775   296.363   1137.797   268.000   268.000   10.720   10.720   0.000   0.000
0.01375   0.00775   297.223   1137.797   268.000   268.000   10.720   10.720   0.000   0.000
0.01625   0.00775   298.323   1137.797   268.000   268.000   10.720   10.720   0.000   0.000
0.01875   0.00775   299.699   1137.797   268.000   268.000   10.720   10.720   0.000   0.000
0.02125   0.00775   301.393   1137.797   268.000   268.000   10.720   10.720   0.000   0.000
0.02375   0.00775   303.449   1137.797   268.000   268.000   10.720   10.720   0.000   0.000
0.02625   0.00775   305.916   1137.797   268.000   268.000   10.720   10.720   0.000   0.000
0.02875   0.00775   308.834   1137.797   268.000   268.000   10.720   10.720   0.000   0.000
0.03125   0.00775   312.159   1137.797   268.000   268.000   10.720   10.720   0.000   0.000
0.03375   0.00775   315.226   1137.797   268.000   268.000   10.720   10.720   0.000   0.000
0.03625   0.00775   317.989   1137.797   268.000   268.000   10.720   10.720   0.000   0.000
0.03875   0.00775   320.485   1137.797   268.000   268.000   10.720   10.720   0.000   0.000
0.04125   0.00775   322.755   1137.797   268.000   268.000   10.720   10.720   0.000   0.000
0.04375   0.00775   324.835   1137.797   268.000   268.000   10.720   10.720   0.000   0.000
0.04625   0.00775   326.754   1137.797   268.000   268.000   10.720   10.720   0.000   0.000
0.04875   0.00775   328.520   1137.797   268.000   268.000   10.720   0.000   0.000   16.197
0.00125   0.00725   294.797   1137.797   268.000   268.000   0.000   10.720   0.000   0.000
0.00375   0.00725   294.944   1137.797   268.000   268.000   10.720   10.720   0.000   0.000
0.00625   0.00725   295.243   1137.797   268.000   268.000   10.720   10.720   0.000   0.000
0.00875   0.00725   295.709   1137.797   268.000   268.000   10.720   10.720   0.000   0.000
0.01125   0.00725   296.359   1137.797   268.000   268.000   10.720   10.720   0.000   0.000
0.01375   0.00725   297.217   1137.797   268.000   268.000   10.720   10.720   0.000   0.000
0.01625   0.00725   298.316   1137.797   268.000   268.000   10.720   10.720   0.000   0.000
0.01875   0.00725   299.691   1137.797   268.000   268.000   10.720   10.720   0.000   0.000
0.02125   0.00725   301.382   1137.797   268.000   268.000   10.720   10.720   0.000   0.000
0.02375   0.00725   303.436   1137.797   268.000   268.000   10.720   10.720   0.000   0.000
0.02625   0.00725   305.897   1137.797   268.000   268.000   10.720   10.720   0.000   0.000
0.02875   0.00725   308.794   1137.797   268.000   268.000   10.720   10.720   0.000   0.000
0.03125   0.00725   312.048   1137.797   268.000   268.000   10.720   10.720   0.000   0.000
0.03375   0.00725   315.094   1137.797   268.000   268.000   10.720   10.720   0.000   0.000
0.03625   0.00725   317.852   1137.797   268.000   268.000   10.720   10.720   0.000   0.000
0.03875   0.00725   320.345   1137.797   268.000   268.000   10.720   10.720   0.000   0.000
0.04125   0.00725   322.613   1137.797   268.000   268.000   10.720   10.720   0.000   0.000
0.04375   0.00725   324.692   1137.797   268.000   268.000   10.720   10.720   0.000   0.000
0.04625   0.00725   326.614   1137.797   268.000   268.000   10.720   10.720   0.000   0.000
0.04875   0.00725   328.397   1137.797   268.000   268.000   10.720   0.000   0.000   16.197
0.00125   0.00675   294.793   1137.797   268.000   268.000   0.000   10.720   0.000   0.000
0.00375   0.00675   294.940   1137.797   268.000   268.000   10.720   10.720   0.000   0.000
0.00625   0.00675   295.239   1137.797   268.000   268.000   10.720   10.720   0.000   0.000
0.00875   0.00675   295.704   1137.797   268.000   268.000   10.720   10.720   0.000   0.000
0.01125   0.00675   296.353   1137.797   268.000   268.000   10.720   10.720   0.000   0.000
0.01375   0.00675   297.210   1137.797   268.000   268.000   10.720   10.720   0.000   0.000
0.01625   0.00675   298.307   1137.797   268.000   268.000   10.720   10.720   0.000   0.000
0.01875   0.00675   299.680   1137.797   268.000   268.000   10.720   10.720   0.000   0.000
0.02125   0.00675   301.369   1137.797   268.000   268.000   10.720   10.720   0.000   0.000
0.02375   0.00675   303.420   1137.797   268.000   268.000   10.720   10.720   0.000   0.000
0.02625   0.00675   305.876   1137.797   268.000   268.000   10.720   10.720   0.000   0.000
0.02875   0.00675   308.757   1137.797   268.000   268.000   10.720   10.720   0.000   0.000
0.03125   0.00675   311.964   1137.797   268.000   268.000   10.720   10.720   0.000   0.000
0.03375   0.00675   314.994   1137.797   268.000   268.000   10.720   10.720   0.000   0.000
0.03625   0.00675   317.746   1137.797   268.000   268.000   10.720   10.720   0.000   0.000
0.03875   0.00675   320.237   1137.797   268.000   268.000   10.720   10.720   0.000   0.000
0.04125   0.00675   322.503   1137.797   268.000   268.000   10.720   10.720   0.000   0.000
0.04375   0.00675   324.581   1137.797   268.000   268.000   10.720   10.720   0.000   0.000
0.04625   0.00675   326.506   1137.797   268.000   268.000   10.720   10.720   0.000   0.000
0.04875   0.00675   328.311   1137.797   268.000   268.000   10.720   0.000   0.000   16.197
0.00125   0.00625   294.789   1137.797   268.000   2.085   0.000   10.720   0.000   0.000
0.00375   0.00625   294.935   1137.797   268.000   2.085   10.720   10.720   0.000   0.000
0.00625   0.00625   295.234   1137.797   268.000   2.085   10.720   10.720   0.000   0.000
0.00875   0.00625   295.698   1137.797   268.000   2.085   10.720   10.720   0.000   0.000
0.01125   0.00625   296.346   1137.797   268.000   2.085   10.720   10.720   0.000   0.000
0.01375   0.00625   297.202   1137.797   268.000   2.085   10.720   10.720   0.000   0.000
0.01625   0.00625   298.297   1137.797   268.000   2.085   10.720   10.720   0.000   0.000
0.01875   0.00625   299.668   1137.797   268.000   2.085   10.720   10.720   0.000   0.000
0.02125   0.00625   301.355   1137.797   268.000   2.085   10.720   10.720   0.000   0.000
0.02375   0.00625   303.402   1137.797   268.000   2.085   10.720   10.720   0.000   0.000
0.02625   0.00625   305.853   1137.797   268.000   2.085   10.720   10.720   0.000   0.000
0.02875   0.00625   308.724   1137.797   268.000   2.085   10.720   10.720   0.000   0.000
0.03125   0.00625   311.906   1137.797   268.000   2.085   10.720   10.720   0.000   0.000
0.03375   0.00625   314.926   1137.797   268.000   2.085   10.720   10.720   0.000   0.000
0.03625   0.00625   317.674   1137.797   268.000   2.085   10.720   10.720   0.000   0.000
0.03875   0.00625   320.161   1137.797   268.000   2.085   10.720   10.720   0.000   0.000
0.04125   0.00625   322.425   1137.797   268.000   2.085   10.720   10.720   0.000   0.000
0.04375   0.00625   324.502   1137.797   268.000   2.085   10.720   10.720   0.000   0.000
0.04625   0.00625   326.429   1137.797   268.000   2.085   10.720   10.720   0.000   0.000
0.04875   0.00625   328.263   1137.797   268.000   2.085   10.720   0.000   0.000   16.197
0.00125   0.00575   294.177   686.719   2.085   1.046   0.000   0.042   0.000   0.000
0.00375   0.00575   294.285   686.719   2.085   1.046   0.042   0.042   0.000   0.000
0.00625   0.00575   294.505   686.719   2.085   1.046   0.042   0.042   0.000   0.000
0.00875   0.00575   294.849   686.719   2.085   1.046   0.042   0.042   0.000   0.000
0.01125   0.00575   295.334   686.719   2.085   1.046   0.042   0.042   0.000   0.000
0.01375   0.00575   295.982   686.719   2.085   1.046   0.042   0.042   0.000   0.000
0.01625   0.00575   296.820   686.719   2.085   1.046   0.042   0.042   0.000   0.000
0.01875   0.00575   297.881   686.719   2.085   1.046   0.042   0.042   0.000   0.000
0.02125   0.00575   299.204   686.719   2.085   1.046   0.042   0.042   0.000   0.000
0.02375   0.00575   300.829   686.719   2.085   1.046   0.042   0.042   0.000   0.000
0.02625   0.00575   302.800   686.719   2.085   1.046   0.042   0.042   0.000   0.000
0.02875   0.00575   305.132   686.719   2.085   1.046   0.042   0.042   0.000   0.000
0.03125   0.00575   307.734   686.719   2.085   1.046   0.042   0.042   0.000   0.000
0.03375   0.00575   310.218   686.719   2.085   1.046   0.042   0.042   0.000   0.000
0.03625   0.00575   312.492   686.719   2.085   1.046   0.042   0.042   0.000   0.000
0.03875   0.00575   314.572   686.719   2.085   1.046   0.042   0.042   0.000   0.000
0.04125   0.00575   316.499   686.719   2.085   1.046   0.042   0.042   0.000   0.000
0.04375   0.00575   318.323   686.719   2.085   1.046   0.042   0.042   0.000   0.000
0.04625   0.00575   320.308   686.719   2.085   1.046   0.042   0.042   0.000   0.000
0.04875   0.00575   327.121   686.719   2.085   1.046   0.042   0.000   0.000   6.075
0.00125   0.00525   293.555   686.719   1.046   1.046   0.000   0.042   0.000   0.000
0.00375   0.00525   293.615   686.719   1.046   1.046   0.042   0.042   0.000   0.000
0.00625   0.00525   293.737   686.719   1.046   1.046   0.042   0.042   0.000   0.000
0.00875   0.00525   293.931   686.719   1.046   1.046   0.042   0.042   0.000   0.000
0.01125   0.00525   294.208   686.719   1.046   1.046   0.042   0.042   0.000   0.000
0.01375   0.00525   294.584   686.719   1.046   1.046   0.042   0.042   0.000   0.000
0.01625   0.00525   295.081   686.719   1.046   1.046   0.042   0.042   0.000   0.000
0.01875   0.00525   295.722   686.719   1.046   1.046   0.042   0.042   0.000   0.000
0.02125   0.00525   296.539   686.719   1.046   1.046   0.042   0.042   0.000   0.000
0.02375   0.00525   297.564   686.719   1.046   1.046   0.042   0.042   0.000   0.000
0.02625   0.00525   298.832   686.719   1.046   1.046   0.042   0.042   0.000   0.000
0.02875   0.00525   300.361   686.719   1.046   1.046   0.042   0.042   0.000   0.000
0.03125   0.00525   302.089   686.719   1.046   1.046   0.042   0.042   0.000   0.000
0.03375   0.00525   303.770   686.719   1.046   1.046   0.042   0.042   0.000   0.000
0.03625   0.00525   305.346   686.719   1.046   1.046   0.042   0.042   0.000   0.000
0.03875   0.00525   306.838   686.719   1.046   1.046   0.042   0.042   0.000   0.000
0.04125   0.00525   308.286   686.719   1.046   1.046   0.042   0.042   0.000   0.000
0.04375   0.00525   309.754   686.719   1.046   1.046   0.042   0.042   0.000   0.000
0.04625   0.00525   311.799   686.719   1.046   1.046   0.042   0.042   0.000   0.000
0.04875   0.00525   323.311   686.719   1.046   1.046   0.042   0.000   0.000   6.080
0.00125   0.00475   293.266   686.719   1.046   1.046   0.000   0.042   0.000   0.000
0.00375   0.00475   293.299   686.719   1.046   1.046   0.042   0.042   0.000   0.000
0.00625   0.00475   293.367   686.719   1.046   1.046   0.042   0.042   0.000   0.000
0.00875   0.00475   293.475   686.719   1.046   1.046   0.042   0.042   0.000   0.000
0.01125   0.00475   293.632   686.719   1.046   1.046   0.042   0.042   0.000   0.000
0.01375   0.00475   293.849   686.719   1.046   1.046   0.042   0.042   0.000   0.000
0.01625   0.00475   294.139   686.719   1.046   1.046   0.042   0.042   0.000   0.000
0.01875   0.00475   294.521   686.719   1.046   1.046   0.042   0.042   0.000   0.000
0.02125   0.00475   295.015   686.719   1.046   1.046   0.042   0.042   0.000   0.000
0.02375   0.00475   295.645   686.719   1.046   1.046   0.042   0.042   0.000   0.000
0.02625   0.00475   296.437   686.719   1.046   1.046   0.042   0.042   0.000   0.000
0.02875   0.00475   297.406   686.719   1.046   1.046   0.042   0.042   0.000   0.000
0.03125   0.00475   298.522   686.719   1.046   1.046   0.042   0.042   0.000   0.000
0.03375   0.00475   299.653   686.719   1.046   1.046   0.042   0.042   0.000   0.000
0.03625   0.00475   300.771   686.719   1.046   1.046   0.042   0.042   0.000   0.000
0.03875   0.00475   301.897   686.719   1.046   1.046   0.042   0.042   0.000   0.000
0.04125   0.00475   303.062   686.719   1.046   1.046   0.042   0.042   0.000   0.000
0.04375   0.00475   304.326   686.719   1.046   1.046   0.042   0.042   0.000   0.000
0.04625   0.00475   306.239   686.719   1.046   1.046   0.042   0.042   0.000   0.000
0.04875   0.00475   317.690   686.719   1.046   1.046   0.042   0.000   0.000   6.086
0.00125   0.00425   293.164   686.719   1.046   2.085   0.000   0.042   0.000   0.000
0.00375   0.00425   293.185   686.719   1.046   2.085   0.042   0.042   0.000   0.000
0.00625   0.00425   293.227   686.719   1.046   2.085   0.042   0.042   0.000   0.000
0.00875   0.00425   293.296   686.719   1.046   2.085   0.042   0.042   0.000   0.000
0.01125   0.00425   293.394   686.719   1.046   2.085   0.042   0.042   0.000   0.000
0.01375   0.00425   293.531   686.719   1.046   2.085   0.042   0.042   0.000   0.000
0.01625   0.00425   293.713   686.719   1.046   2.085   0.042   0.042   0.000   0.000
0.01875   0.00425   293.952   686.719   1.046   2.085   0.042   0.042   0.000   0.000
0.02125   0.00425   294.260   686.719   1.046   2.085   0.042   0.042   0.000   0.000
0.02375   0.00425   294.651   686.719   1.046   2.085   0.042   0.042   0.000   0.000
0.02625   0.00425   295.142   686.719   1.046   2.085   0.042   0.042   0.000   0.000
0.02875   0.00425   295.744   686.719   1.046   2.085   0.042   0.042   0.000   0.000
0.03125   0.00425   296.454   686.719   1.046   2.085   0.042   0.042   0.000   0.000
0.03375   0.00425   297.238   686.719   1.046   2.085   0.042   0.042   0.000   0.000
0.03625   0.00425   298.093   686.719   1.046   2.085   0.042   0.042   0.000   0.000
0.03875   0.00425   299.035   686.719   1.046   2.085   0.042   0.042   0.000   0.000
0.04125   0.00425   300.083   686.719   1.046   2.085   0.042   0.042   0.000   0.000
0.04375   0.00425   301.268   686.719   1.046   2.085   0.042   0.042   0.000   0.000
0.04625   0.00425   302.838   686.719   1.046   2.085   0.042   0.042   0.000   0.000
0.04875   0.00425   309.456   686.719   1.046   2.085   0.042   0.000   0.000   6.095
0.00125   0.00375   293.174   1137.797   2.085   268.000   0.000   10.720   0.000   0.000
0.00375   0.00375   293.193   1137.797   2.085   268.000   10.720   10.720   0.000   0.000
0.00625   0.00375   293.233   1137.797   2.085   268.000   10.720   10.720   0.000   0.000
0.00875   0.00375   293.296   1137.797   2.085   268.000   10.720   10.720   0.000   0.000
0.01125   0.00375   293.386   1137.797   2.085   268.000   10.720   10.720   0.000   0.000
0.01375   0.00375   293.508   1137.797   2.085   268.000   10.720   10.720   0.000   0.000
0.01625   0.00375   293.668   1137.797   2.085   268.000   10.720   10.720   0.000   0.000
0.01875   0.00375   293.873   1137.797   2.085   268.000   10.720   10.720   0.000   0.000
0.02125   0.00375   294.132   1137.797   2.085   268.000   10.720   10.720   0.000   0.000
0.02375   0.00375   294.455   1137.797   2.085   268.000   10.720   10.720   0.000   0.000
0.02625   0.00375   294.850   1137.797   2.085   268.000   10.720   10.720   0.000   0.000
0.02875   0.00375   295.328   1137.797   2.085   268.000   10.720   10.720   0.000   0.000
0.03125   0.00375   295.899   1137.797   2.085   268.000   10.720   10.720   0.000   0.000
0.03375   0.00375   296.572   1137.797   2.085   268.000   10.720   10.720   0.000   0.000
0.03625   0.00375   297.356   1137.797   2.085   268.000   10.720   10.720   0.000   0.000
0.03875   0.00375   298.264   1137.797   2.085   268.000   10.720   10.720   0.000   0.000
0.04125   0.00375   299.304   1137.797   2.085   268.000   10.720   10.720   0.000   0.000
0.04375   0.00375   300.489   1137.797   2.085   268.000   10.720   10.720   0.000   0.000
0.04625   0.00375   301.835   1137.797   2.085   268.000   10.720   10.720   0.000   0.000
0.04875   0.00375   303.386   1137.797   2.085   268.000   10.720   0.000   0.000   16.269
0.00125   0.00325   293.174   1137.797   268.000   268.000   0.000   10.720   0.000   0.000
0.00375   0.00325   293.193   1137.797   268.000   268.000   10.720   10.720   0.000   0.000
0.00625   0.00325   293.233   1137.797   268.000   268.000   10.720   10.720   0.000   0.000
0.00875   0.00325   293.296   1137.797   268.000   268.000   10.720   10.720   0.000   0.000
0.01125   0.00325   293.386   1137.797   268.000   268.000   10.720   10.720   0.000   0.000
0.01375   0.00325   293.508   1137.797   268.000   268.000   10.720   10.720   0.000   0.000
0.01625   0.00325   293.667   1137.797   268.000   268.000   10.720   10.720   0.000   0.000
0.01875   0.00325   293.873   1137.797   268.000   268.000   10.720   10.720   0.000   0.000
0.02125   0.00325   294.131   1137.797   268.000   268.000   10.720   10.720   0.000   0.000
0.02375   0.00325   294.453   1137.797   268.000   268.000   10.720   10.720   0.000   0.000
0.02625   0.00325   294.848   1137.797   268.000   268.000   10.720   10.720   0.000   0.000
0.02875   0.00325   295.326   1137.797   268.000   268.000   10.720   10.720   0.000   0.000
0.03125   0.00325   295.896   1137.797   268.000   268.000   10.720   10.720   0.000   0.000
0.03375   0.00325   296.568   1137.797   268.000   268.000   10.720   10.720   0.000   0.000
0.03625   0.00325   297.352   1137.797   268.000   268.000   10.720   10.720   0.000   0.000
0.03875   0.00325   298.258   1137.797   268.000   268.000   10.720   10.720   0.000   0.000
0.04125   0.00325   299.299   1137.797   268.000   268.000   10.720   10.720   0.000   0.000
0.04375   0.00325   300.483   1137.797   268.000   268.000   10.720   10.720   0.000   0.000
0.04625   0.00325   301.826   1137.797   268.000   268.000   10.720   10.720   0.000   0.000
0.04875   0.00325   303.347   1137.797   268.000   268.000   10.720   0.000   0.000   16.269
0.00125   0.00275   293.174   1137.797   268.000   268.000   0.000   10.720   0.000   0.000
0.00375   0.00275   293.193   1137.797   268.000   268.000   10.720   10.720   0.000   0.000
0.00625   0.00275   293.233   1137.797   268.000   268.000   10.720   10.720   0.000   0.000
0.00875   0.00275   293.296   1137.797   268.000   268.000   10.720   10.720   0.000   0.000
0.01125   0.00275   293.386   1137.797   268.000   268.000   10.720   10.720   0.000   0.000
0.01375   0.00275   293.507   1137.797   268.000   268.000   10.720   10.720   0.000   0.000
0.01625   0.00275   293.667   1137.797   268.000   268.000   10.720   10.720   0.000   0.000
0.01875   0.00275   293.872   1137.797   268.000   268.000   10.720   10.720   0.000   0.000
0.02125   0.00275   294.131   1137.797   268.000   268.000   10.720   10.720   0.000   0.000
0.02375   0.00275   294.452   1137.797   268.000   268.000   10.720   10.720   0.000   0.000
0.02625   0.00275   294.846   1137.797   268.000   268.000   10.720   10.720   0.000   0.000
0.02875   0.00275   295.323   1137.797   268.000   268.000   10.720   10.720   0.000   0.000
0.03125   0.00275   295.892   1137.797   268.000   268.000   10.720   10.720   0.000   0.000
0.03375   0.00275   296.564   1137.797   268.000   268.000   10.720   10.720   0.000   0.000
0.03625   0.00275   297.347   1137.797   268.000   268.000   10.720   10.720   0.000   0.000
0.03875   0.00275   298.254   1137.797   268.000   268.000   10.720   10.720   0.000   0.000
0.04125   0.00275   299.294   1137.797   268.000   268.000   10.720   10.720   0.000   0.000
0.04375   0.00275   300.478   1137.797   268.000   268.000   10.720   10.720   0.000   0.000
0.04625   0.00275   301.817   1137.797   268.000   268.000   10.720   10.720   0.000   0.000
0.04875   0.00275   303.316   1137.797   268.000   268.000   10.720   0.000   0.000   16.269
0.00125   0.00225   293.174   1137.797   268.000   268.000   0.000   10.720   0.000   0.000
0.00375   0.00225   293.193   1137.797   268.000   268.000   10.720   10.720   0.000   0.000
0.00625   0.00225   293.233   1137.797   268.000   268.000   10.720   10.720   0.000   0.000
0.00875   0.00225   293.296   1137.797   268.000   268.000   10.720   10.720   0.000   0.000
0.01125   0.00225   293.386   1137.797   268.000   268.000   10.720   10.720   0.000   0.000
0.01375   0.00225   293.507   1137.797   268.000   268.000   10.720   10.720   0.000   0.000
0.01625   0.00225   293.667   1137.797   268.000   268.000   10.720   10.720   0.000   0.000
0.01875   0.00225   293.872   1137.797   268.000   268.000   10.720   10.720   0.000   0.000
0.02125   0.00225   294.130   1137.797   268.000   268.000   10.720   10.720   0.000   0.000
0.02375   0.00225   294.451   1137.797   268.000   268.000   10.720   10.720   0.000   0.000
0.02625   0.00225   294.845   1137.797   268.000   268.000   10.720   10.720   0.000   0.000
0.02875   0.00225   295.321   1137.797   268.000   268.000   10.720   10.720   0.000   0.000
0.03125   0.00225   295.890   1137.797   268.000   268.000   10.720   10.720   0.000   0.000
0.03375   0.00225   296.561   1137.797   268.000   268.000   10.720   10.720   0.000   0.000
0.03625   0.00225   297.344   1137.797   268.000   268.000   10.720   10.720   0.000   0.000
0.03875   0.00225   298.250   1137.797   268.000   268.000   10.720   10.720   0.000   0.000
0.04125   0.00225   299.290   1137.797   268.000   268.000   10.720   10.720   0.000   0.000
0.04375   0.00225   300.474   1137.797   268.000   268.000   10.720   10.720   0.000   0.000
0.04625   0.00225   301.809   1137.797   268.000   268.000   10.720   10.720   0.000   0.000
0.04875   0.00225   303.291   1137.797   268.000   268.000   10.720   0.000   0.000   16.269
0.00125   0.00175   293.174   1137.797   268.000   268.000   0.000   10.720   0.000   0.000
0.00375   0.00175   293.193   1137.797   268.000   268.000   10.720   10.720   0.000   0.000
0.00625   0.00175   293.233   1137.797   268.000   268.000   10.720   10.720   0.000   0.000
0.00875   0.00175   293.296   1137.797   268.000   268.000   10.720   10.720   0.000   0.000
0.01125   0.00175   293.386   1137.797   268.000   268.000   10.720   10.720   0.000   0.000
0.01375   0.00175   293.507   1137.797   268.000   268.000   10.720   10.720   0.000   0.000
0.01625   0.00175   293.667   1137.797   268.000   268.000   10.720   10.720   0.000   0.000
0.01875   0.00175   293.871   1137.797   268.000   268.000   10.720   10.720   0.000   0.000
0.02125   0.00175   294.130   1137.797   268.000   268.000   10.720   10.720   0.000   0.000