VARIABLES = X, Y, T, ap,an,as,aw,ae,sp,su
ZONE I=20,J=20, F=POINT,t="29.676"
0.00125   0.00975   301.090   1137.797   0.000   268.000   0.000   10.720   0.000   -0.006
0.00375   0.00975   301.371   1137.797   0.000   268.000   10.720   10.720   0.000   -0.006
0.00625   0.00975   301.936   1137.797   0.000   268.000   10.720   10.720   0.000   -0.007
0.00875   0.00975   302.794   1137.797   0.000   268.000   10.720   10.720   0.000   -0.007
0.01125   0.00975   303.955   1137.797   0.000   268.000   10.720   10.720   0.000   -0.008
0.01375   0.00975   305.436   1137.797   0.000   268.000   10.720   10.720   0.000   -0.009
0.01625   0.00975   307.254   1137.797   0.000   268.000   10.720   10.720   0.000   -0.011
0.01875   0.00975   309.430   1137.797   0.000   268.000   10.720   10.720   0.000   -0.012
0.02125   0.00975   311.990   1137.797   0.000   268.000   10.720   10.720   0.000   -0.014
0.02375   0.00975   314.960   1137.797   0.000   268.000   10.720   10.720   0.000   -0.016
0.02625   0.00975   318.377   1137.797   0.000   268.000   10.720   10.720   0.000   -0.019
0.02875   0.00975   322.316   1137.797   0.000   268.000   10.720   10.720   0.000   -0.022
0.03125   0.00975   327.188   1137.797   0.000   268.000   10.720   10.720   0.000   80.979
0.03375   0.00975   331.207   1137.797   0.000   268.000   10.720   10.720   0.000   80.911
0.03625   0.00975   334.782   1137.797   0.000   268.000   10.720   10.720   0.000   80.848
0.03875   0.00975   337.987   1137.797   0.000   268.000   10.720   10.720   0.000   80.790
0.04125   0.00975   340.849   1137.797   0.000   268.000   10.720   10.720   0.000   80.737
0.04375   0.00975   343.389   1137.797   0.000   268.000   10.720   10.720   0.000   80.689
0.04625   0.00975   345.614   1137.797   0.000   268.000   10.720   10.720   0.000   80.646
0.04875   0.00975   347.509   1137.797   0.000   268.000   10.720   0.000   0.000   96.739
0.00125   0.00925   301.089   1137.797   268.000   268.000   0.000   10.720   0.000   0.000
0.00375   0.00925   301.369   1137.797   268.000   268.000   10.720   10.720   0.000   0.000
0.00625   0.00925   301.934   1137.797   268.000   268.000   10.720   10.720   0.000   0.000
0.00875   0.00925   302.792   1137.797   268.000   268.000   10.720   10.720   0.000   0.000
0.01125   0.00925   303.953   1137.797   268.000   268.000   10.720   10.720   0.000   0.000
0.01375   0.00925   305.434   1137.797   268.000   268.000   10.720   10.720   0.000   0.000
0.01625   0.00925   307.251   1137.797   268.000   268.000   10.720   10.720   0.000   0.000
0.01875   0.00925   309.427   1137.797   268.000   268.000   10.720   10.720   0.000   0.000
0.02125   0.00925   311.987   1137.797   268.000   268.000   10.720   10.720   0.000   0.000
0.02375   0.00925   314.956   1137.797   268.000   268.000   10.720   10.720   0.000   0.000
0.02625   0.00925   318.371   1137.797   268.000   268.000   10.720   10.720   0.000   0.000
0.02875   0.00925   322.295   1137.797   268.000   268.000   10.720   10.720   0.000   0.000
0.03125   0.00925   326.936   1137.797   268.000   268.000   10.720   10.720   0.000   0.000
0.03375   0.00925   330.940   1137.797   268.000   268.000   10.720   10.720   0.000   0.000
0.03625   0.00925   334.513   1137.797   268.000   268.000   10.720   10.720   0.000   0.000
0.03875   0.00925   337.717   1137.797   268.000   268.000   10.720   10.720   0.000   0.000
0.04125   0.00925   340.579   1137.797   268.000   268.000   10.720   10.720   0.000   0.000
0.04375   0.00925   343.119   1137.797   268.000   268.000   10.720   10.720   0.000   0.000
0.04625   0.00925   345.345   1137.797   268.000   268.000   10.720   10.720   0.000   0.000
0.04875   0.00925   347.243   1137.797   268.000   268.000   10.720   0.000   0.000   16.131
0.00125   0.00875   301.085   1137.797   268.000   268.000   0.000   10.720   0.000   0.000
0.00375   0.00875   301.366   1137.797   268.000   268.000   10.720   10.720   0.000   0.000
0.00625   0.00875   301.931   1137.797   268.000   268.000   10.720   10.720   0.000   0.000
0.00875   0.00875   302.788   1137.797   268.000   268.000   10.720   10.720   0.000   0.000
0.01125   0.00875   303.949   1137.797   268.000   268.000   10.720   10.720   0.000   0.000
0.01375   0.00875   305.429   1137.797   268.000   268.000   10.720   10.720   0.000   0.000
0.01625   0.00875   307.246   1137.797   268.000   268.000   10.720   10.720   0.000   0.000
0.01875   0.00875   309.421   1137.797   268.000   268.000   10.720   10.720   0.000   0.000
0.02125   0.00875   311.980   1137.797   268.000   268.000   10.720   10.720   0.000   0.000
0.02375   0.00875   314.948   1137.797   268.000   268.000   10.720   10.720   0.000   0.000
0.02625   0.00875   318.358   1137.797   268.000   268.000   10.720   10.720   0.000   0.000
0.02875   0.00875   322.259   1137.797   268.000   268.000   10.720   10.720   0.000   0.000
0.03125   0.00875   326.725   1137.797   268.000   268.000   10.720   10.720   0.000   0.000
0.03375   0.00875   330.706   1137.797   268.000   268.000   10.720   10.720   0.000   0.000
0.03625   0.00875   334.276   1137.797   268.000   268.000   10.720   10.720   0.000   0.000
0.03875   0.00875   337.478   1137.797   268.000   268.000   10.720   10.720   0.000   0.000
0.04125   0.00875   340.340   1137.797   268.000   268.000   10.720   10.720   0.000   0.000
0.04375   0.00875   342.880   1137.797   268.000   268.000   10.720   10.720   0.000   0.000
0.04625   0.00875   345.108   1137.797   268.000   268.000   10.720   10.720   0.000   0.000
0.04875   0.00875   347.012   1137.797   268.000   268.000   10.720   0.000   0.000   16.132
0.00125   0.00825   301.080   1137.797   268.000   268.000   0.000   10.720   0.000   0.000
0.00375   0.00825   301.360   1137.797   268.000   268.000   10.720   10.720   0.000   0.000
0.00625   0.00825   301.925   1137.797   268.000   268.000   10.720   10.720   0.000   0.000
0.00875   0.00825   302.782   1137.797   268.000   268.000   10.720   10.720   0.000   0.000
0.01125   0.00825   303.942   1137.797   268.000   268.000   10.720   10.720   0.000   0.000
0.01375   0.00825   305.422   1137.797   268.000   268.000   10.720   10.720   0.000   0.000
0.01625   0.00825   307.238   1137.797   268.000   268.000   10.720   10.720   0.000   0.000
0.01875   0.00825   309.413   1137.797   268.000   268.000   10.720   10.720   0.000   0.000
0.02125   0.00825   311.970   1137.797   268.000   268.000   10.720   10.720   0.000   0.000
0.02375   0.00825   314.936   1137.797   268.000   268.000   10.720   10.720   0.000   0.000
0.02625   0.00825   318.341   1137.797   268.000   268.000   10.720   10.720   0.000   0.000
0.02875   0.00825   322.217   1137.797   268.000   268.000   10.720   10.720   0.000   0.000
0.03125   0.00825   326.550   1137.797   268.000   268.000   10.720   10.720   0.000   0.000
0.03375   0.00825   330.506   1137.797   268.000   268.000   10.720   10.720   0.000   0.000
0.03625   0.00825   334.070   1137.797   268.000   268.000   10.720   10.720   0.000   0.000
0.03875   0.00825   337.271   1137.797   268.000   268.000   10.720   10.720   0.000   0.000
0.04125   0.00825   340.133   1137.797   268.000   268.000   10.720   10.720   0.000   0.000
0.04375   0.00825   342.673   1137.797   268.000   268.000   10.720   10.720   0.000   0.000
0.04625   0.00825   344.903   1137.797   268.000   268.000   10.720   10.720   0.000   0.000
0.04875   0.00825   346.815   1137.797   268.000   268.000   10.720   0.000   0.000   16.133
0.00125   0.00775   301.073   1137.797   268.000   268.000   0.000   10.720   0.000   0.000
0.00375   0.00775   301.353   1137.797   268.000   268.000   10.720   10.720   0.000   0.000
0.00625   0.00775   301.918   1137.797   268.000   268.000   10.720   10.720   0.000   0.000
0.00875   0.00775   302.774   1137.797   268.000   268.000   10.720   10.720   0.000   0.000
0.01125   0.00775   303.934   1137.797   268.000   268.000   10.720   10.720   0.000   0.000
0.01375   0.00775   305.412   1137.797   268.000   268.000   10.720   10.720   0.000   0.000
0.01625   0.00775   307.227   1137.797   268.000   268.000   10.720   10.720   0.000   0.000
0.01875   0.00775   309.401   1137.797   268.000   268.000   10.720   10.720   0.000   0.000
0.02125   0.00775   311.957   1137.797   268.000   268.000   10.720   10.720   0.000   0.000
0.02375   0.00775   314.921   1137.797   268.000   268.000   10.720   10.720   0.000   0.000
0.02625   0.00775   318.320   1137.797   268.000   268.000   10.720   10.720   0.000   0.000
0.02875   0.00775   322.171   1137.797   268.000   268.000   10.720   10.720   0.000   0.000
0.03125   0.00775   326.406   1137.797   268.000   268.000   10.720   10.720   0.000   0.000
0.03375   0.00775   330.338   1137.797   268.000   268.000   10.720   10.720   0.000   0.000
0.03625   0.00775   333.896   1137.797   268.000   268.000   10.720   10.720   0.000   0.000
0.03875   0.00775   337.096   1137.797   268.000   268.000   10.720   10.720   0.000   0.000
0.04125   0.00775   339.956   1137.797   268.000   268.000   10.720   10.720   0.000   0.000
0.04375   0.00775   342.496   1137.797   268.000   268.000   10.720   10.720   0.000   0.000
0.04625   0.00775   344.730   1137.797   268.000   268.000   10.720   10.720   0.000   0.000
0.04875   0.00775   346.654   1137.797   268.000   268.000   10.720   0.000   0.000   16.133
0.00125   0.00725   301.064   1137.797   268.000   268.000   0.000   10.720   0.000   0.000
0.00375   0.00725   301.344   1137.797   268.000   268.000   10.720   10.720   0.000   0.000
0.00625   0.00725   301.908   1137.797   268.000   268.000   10.720   10.720   0.000   0.000
0.00875   0.00725   302.764   1137.797   268.000   268.000   10.720   10.720   0.000   0.000
0.01125   0.00725   303.923   1137.797   268.000   268.000   10.720   10.720   0.000   0.000
0.01375   0.00725   305.400   1137.797   268.000   268.000   10.720   10.720   0.000   0.000
0.01625   0.00725   307.214   1137.797   268.000   268.000   10.720   10.720   0.000   0.000
0.01875   0.00725   309.386   1137.797   268.000   268.000   10.720   10.720   0.000   0.000
0.02125   0.00725   311.940   1137.797   268.000   268.000   10.720   10.720   0.000   0.000
0.02375   0.00725   314.902   1137.797   268.000   268.000   10.720   10.720   0.000   0.000
0.02625   0.00725   318.295   1137.797   268.000   268.000   10.720   10.720   0.000   0.000
0.02875   0.00725   322.126   1137.797   268.000   268.000   10.720   10.720   0.000   0.000
0.03125   0.00725   326.290   1137.797   268.000   268.000   10.720   10.720   0.000   0.000
0.03375   0.00725   330.201   1137.797   268.000   268.000   10.720   10.720   0.000   0.000
0.03625   0.00725   333.755   1137.797   268.000   268.000   10.720   10.720   0.000   0.000
0.03875   0.00725   336.952   1137.797   268.000   268.000   10.720   10.720   0.000   0.000
0.04125   0.00725   339.811   1137.797   268.000   268.000   10.720   10.720   0.000   0.000
0.04375   0.00725   342.351   1137.797   268.000   268.000   10.720   10.720   0.000   0.000
0.04625   0.00725   344.588   1137.797   268.000   268.000   10.720   10.720   0.000   0.000
0.04875   0.00725   346.529   1137.797   268.000   268.000   10.720   0.000   0.000   16.134
0.00125   0.00675   301.054   1137.797   268.000   268.000   0.000   10.720   0.000   0.000
0.00375   0.00675   301.334   1137.797   268.000   268.000   10.720   10.720   0.000   0.000
0.00625   0.00675   301.897   1137.797   268.000   268.000   10.720   10.720   0.000   0.000
0.00875   0.00675   302.752   1137.797   268.000   268.000   10.720   10.720   0.000   0.000
0.01125   0.00675   303.910   1137.797   268.000   268.000   10.720   10.720   0.000   0.000
0.01375   0.00675   305.386   1137.797   268.000   268.000   10.720   10.720   0.000   0.000
0.01625   0.00675   307.198   1137.797   268.000   268.000   10.720   10.720   0.000   0.000
0.01875   0.00675   309.369   1137.797   268.000   268.000   10.720   10.720   0.000   0.000
0.02125   0.00675   311.920   1137.797   268.000   268.000   10.720   10.720   0.000   0.000
0.02375   0.00675   314.879   1137.797   268.000   268.000   10.720   10.720   0.000   0.000
0.02625   0.00675   318.267   1137.797   268.000   268.000   10.720   10.720   0.000   0.000
0.02875   0.00675   322.082   1137.797   268.000   268.000   10.720   10.720   0.000   0.000
0.03125   0.00675   326.200   1137.797   268.000   268.000   10.720   10.720   0.000   0.000
0.03375   0.00675   330.096   1137.797   268.000   268.000   10.720   10.720   0.000   0.000
0.03625   0.00675   333.644   1137.797   268.000   268.000   10.720   10.720   0.000   0.000
0.03875   0.00675   336.839   1137.797   268.000   268.000   10.720   10.720   0.000   0.000
0.04125   0.00675   339.697   1137.797   268.000   268.000   10.720   10.720   0.000   0.000
0.04375   0.00675   342.236   1137.797   268.000   268.000   10.720   10.720   0.000   0.000
0.04625   0.00675   344.476   1137.797   268.000   268.000   10.720   10.720   0.000   0.000
0.04875   0.00675   346.440   1137.797   268.000   268.000   10.720   0.000   0.000   16.134
0.00125   0.00625   301.042   1137.797   268.000   2.085   0.000   10.720   0.000   0.000
0.00375   0.00625   301.321   1137.797   268.000   2.085   10.720   10.720   0.000   0.000
0.00625   0.00625   301.884   1137.797   268.000   2.085   10.720   10.720   0.000   0.000
0.00875   0.00625   302.738   1137.797   268.000   2.085   10.720   10.720   0.000   0.000
0.01125   0.00625   303.895   1137.797   268.000   2.085   10.720   10.720   0.000   0.000
0.01375   0.00625   305.369   1137.797   268.000   2.085   10.720   10.720   0.000   0.000
0.01625   0.00625   307.180   1137.797   268.000   2.085   10.720   10.720   0.000   0.000
0.01875   0.00625   309.348   1137.797   268.000   2.085   10.720   10.720   0.000   0.000
0.02125   0.00625   311.897   1137.797   268.000   2.085   10.720   10.720   0.000   0.000
0.02375   0.00625   314.853   1137.797   268.000   2.085   10.720   10.720   0.000   0.000
0.02625   0.00625   318.236   1137.797   268.000   2.085   10.720   10.720   0.000   0.000
0.02875   0.00625   322.042   1137.797   268.000   2.085   10.720   10.720   0.000   0.000
0.03125   0.00625   326.135   1137.797   268.000   2.085   10.720   10.720   0.000   0.000
0.03375   0.00625   330.021   1137.797   268.000   2.085   10.720   10.720   0.000   0.000
0.03625   0.00625   333.565   1137.797   268.000   2.085   10.720   10.720   0.000   0.000
0.03875   0.00625   336.757   1137.797   268.000   2.085   10.720   10.720   0.000   0.000
0.04125   0.00625   339.613   1137.797   268.000   2.085   10.720   10.720   0.000   0.000
0.04375   0.00625   342.152   1137.797   268.000   2.085   10.720   10.720   0.000   0.000
0.04625   0.00625   344.395   1137.797   268.000   2.085   10.720   10.720   0.000   0.000
0.04875   0.00625   346.388   1137.797   268.000   2.085   10.720   0.000   0.000   16.134
0.00125   0.00575   299.254   686.719   2.085   1.046   0.000   0.042   0.000   0.000
0.00375   0.00575   299.490   686.719   2.085   1.046   0.042   0.042   0.000   0.000
0.00625   0.00575   299.966   686.719   2.085   1.046   0.042   0.042   0.000   0.000
0.00875   0.00575   300.689   686.719   2.085   1.046   0.042   0.042   0.000   0.000
0.01125   0.00575   301.671   686.719   2.085   1.046   0.042   0.042   0.000   0.000
0.01375   0.00575   302.926   686.719   2.085   1.046   0.042   0.042   0.000   0.000
0.01625   0.00575   304.472   686.719   2.085   1.046   0.042   0.042   0.000   0.000
0.01875   0.00575   306.331   686.719   2.085   1.046   0.042   0.042   0.000   0.000
0.02125   0.00575   308.526   686.719   2.085   1.046   0.042   0.042   0.000   0.000
0.02375   0.00575   311.080   686.719   2.085   1.046   0.042   0.042   0.000   0.000
0.02625   0.00575   314.016   686.719   2.085   1.046   0.042   0.042   0.000   0.000
0.02875   0.00575   317.329   686.719   2.085   1.046   0.042   0.042   0.000   0.000
0.03125   0.00575   320.898   686.719   2.085   1.046   0.042   0.042   0.000   0.000
0.03375   0.00575   324.312   686.719   2.085   1.046   0.042   0.042   0.000   0.000
0.03625   0.00575   327.450   686.719   2.085   1.046   0.042   0.042   0.000   0.000
0.03875   0.00575   330.304   686.719   2.085   1.046   0.042   0.042   0.000   0.000
0.04125   0.00575   332.890   686.719   2.085   1.046   0.042   0.042   0.000   0.000
0.04375   0.00575   335.241   686.719   2.085   1.046   0.042   0.042   0.000   0.000
0.04625   0.00575   337.620   686.719   2.085   1.046   0.042   0.042   0.000   0.000
0.04875   0.00575   344.696   686.719   2.085   1.046   0.042   0.000   0.000   6.053
0.00125   0.00525   296.930   686.719   1.046   1.046   0.000   0.042   0.000   0.000
0.00375   0.00525   297.097   686.719   1.046   1.046   0.042   0.042   0.000   0.000
0.00625   0.00525   297.435   686.719   1.046   1.046   0.042   0.042   0.000   0.000
0.00875   0.00525   297.950   686.719   1.046   1.046   0.042   0.042   0.000   0.000
0.01125   0.00525   298.651   686.719   1.046   1.046   0.042   0.042   0.000   0.000
0.01375   0.00525   299.552   686.719   1.046   1.046   0.042   0.042   0.000   0.000
0.01625   0.00525   300.667   686.719   1.046   1.046   0.042   0.042   0.000   0.000
0.01875   0.00525   302.016   686.719   1.046   1.046   0.042   0.042   0.000   0.000
0.02125   0.00525   303.617   686.719   1.046   1.046   0.042   0.042   0.000   0.000
0.02375   0.00525   305.492   686.719   1.046   1.046   0.042   0.042   0.000   0.000
0.02625   0.00525   307.660   686.719   1.046   1.046   0.042   0.042   0.000   0.000
0.02875   0.00525   310.118   686.719   1.046   1.046   0.042   0.042   0.000   0.000
0.03125   0.00525   312.780   686.719   1.046   1.046   0.042   0.042   0.000   0.000
0.03375   0.00525   315.371   686.719   1.046   1.046   0.042   0.042   0.000   0.000
0.03625   0.00525   317.803   686.719   1.046   1.046   0.042   0.042   0.000   0.000
0.03875   0.00525   320.072   686.719   1.046   1.046   0.042   0.042   0.000   0.000
0.04125   0.00525   322.195   686.719   1.046   1.046   0.042   0.042   0.000   0.000
0.04375   0.00525   324.222   686.719   1.046   1.046   0.042   0.042   0.000   0.000
0.04625   0.00525   326.726   686.719   1.046   1.046   0.042   0.042   0.000   0.000
0.04875   0.00525   338.636   686.719   1.046   1.046   0.042   0.000   0.000   6.061
0.00125   0.00475   295.504   686.719   1.046   1.046   0.000   0.042   0.000   0.000
0.00375   0.00475   295.619   686.719   1.046   1.046   0.042   0.042   0.000   0.000
0.00625   0.00475   295.852   686.719   1.046   1.046   0.042   0.042   0.000   0.000
0.00875   0.00475   296.207   686.719   1.046   1.046   0.042   0.042   0.000   0.000
0.01125   0.00475   296.692   686.719   1.046   1.046   0.042   0.042   0.000   0.000
0.01375   0.00475   297.316   686.719   1.046   1.046   0.042   0.042   0.000   0.000
0.01625   0.00475   298.090   686.719   1.046   1.046   0.042   0.042   0.000   0.000
0.01875   0.00475   299.028   686.719   1.046   1.046   0.042   0.042   0.000   0.000
0.02125   0.00475   300.146   686.719   1.046   1.046   0.042   0.042   0.000   0.000
0.02375   0.00475   301.457   686.719   1.046   1.046   0.042   0.042   0.000   0.000
0.02625   0.00475   302.975   686.719   1.046   1.046   0.042   0.042   0.000   0.000
0.02875   0.00475   304.702   686.719   1.046   1.046   0.042   0.042   0.000   0.000
0.03125   0.00475   306.585   686.719   1.046   1.046   0.042   0.042   0.000   0.000
0.03375   0.00475   308.468   686.719   1.046   1.046   0.042   0.042   0.000   0.000
0.03625   0.00475   310.298   686.719   1.046   1.046   0.042   0.042   0.000   0.000
0.03875   0.00475   312.074   686.719   1.046   1.046   0.042   0.042   0.000   0.000
0.04125   0.00475   313.810   686.719   1.046   1.046   0.042   0.042   0.000   0.000
0.04375   0.00475   315.550   686.719   1.046   1.046   0.042   0.042   0.000   0.000
0.04625   0.00475   317.867   686.719   1.046   1.046   0.042   0.042   0.000   0.000
0.04875   0.00475   329.692   686.719   1.046   1.046   0.042   0.000   0.000   6.072
0.00125   0.00425   294.722   686.719   1.046   2.085   0.000   0.042   0.000   0.000
0.00375   0.00425   294.798   686.719   1.046   2.085   0.042   0.042   0.000   0.000
0.00625   0.00425   294.953   686.719   1.046   2.085   0.042   0.042   0.000   0.000
0.00875   0.00425   295.189   686.719   1.046   2.085   0.042   0.042   0.000   0.000
0.01125   0.00425   295.510   686.719   1.046   2.085   0.042   0.042   0.000   0.000
0.01375   0.00425   295.921   686.719   1.046   2.085   0.042   0.042   0.000   0.000
0.01625   0.00425   296.429   686.719   1.046   2.085   0.042   0.042   0.000   0.000
0.01875   0.00425   297.041   686.719   1.046   2.085   0.042   0.042   0.000   0.000
0.02125   0.00425   297.764   686.719   1.046   2.085   0.042   0.042   0.000   0.000
0.02375   0.00425   298.607   686.719   1.046   2.085   0.042   0.042   0.000   0.000
0.02625   0.00425   299.577   686.719   1.046   2.085   0.042   0.042   0.000   0.000
0.02875   0.00425   300.675   686.719   1.046   2.085   0.042   0.042   0.000   0.000
0.03125   0.00425   301.886   686.719   1.046   2.085   0.042   0.042   0.000   0.000
0.03375   0.00425   303.158   686.719   1.046   2.085   0.042   0.042   0.000   0.000
0.03625   0.00425   304.473   686.719   1.046   2.085   0.042   0.042   0.000   0.000
0.03875   0.00425   305.834   686.719   1.046   2.085   0.042   0.042   0.000   0.000
0.04125   0.00425   307.246   686.719   1.046   2.085   0.042   0.042   0.000   0.000
0.04375   0.00425   308.730   686.719   1.046   2.085   0.042   0.042   0.000   0.000
0.04625   0.00425   310.540   686.719   1.046   2.085   0.042   0.042   0.000   0.000
0.04875   0.00425   317.350   686.719   1.046   2.085   0.042   0.000   0.000   6.087
0.00125   0.00375   294.562   1137.797   2.085   268.000   0.000   10.720   0.000   0.000
0.00375   0.00375   294.624   1137.797   2.085   268.000   10.720   10.720   0.000   0.000
0.00625   0.00375   294.750   1137.797   2.085   268.000   10.720   10.720   0.000   0.000
0.00875   0.00375   294.940   1137.797   2.085   268.000   10.720   10.720   0.000   0.000
0.01125   0.00375   295.197   1137.797   2.085   268.000   10.720   10.720   0.000   0.000
0.01375   0.00375   295.524   1137.797   2.085   268.000   10.720   10.720   0.000   0.000
0.01625   0.00375   295.924   1137.797   2.085   268.000   10.720   10.720   0.000   0.000
0.01875   0.00375   296.401   1137.797   2.085   268.000   10.720   10.720   0.000   0.000
0.02125   0.00375   296.959   1137.797   2.085   268.000   10.720   10.720   0.000   0.000
0.02375   0.00375   297.600   1137.797   2.085   268.000   10.720   10.720   0.000   0.000
0.02625   0.00375   298.329   1137.797   2.085   268.000   10.720   10.720   0.000   0.000
0.02875   0.00375   299.147   1137.797   2.085   268.000   10.720   10.720   0.000   0.000
0.03125   0.00375   300.055   1137.797   2.085   268.000   10.720   10.720   0.000   0.000
0.03375   0.00375   301.053   1137.797   2.085   268.000   10.720   10.720   0.000   0.000
0.03625   0.00375   302.140   1137.797   2.085   268.000   10.720   10.720   0.000   0.000
0.03875   0.00375   303.319   1137.797   2.085   268.000   10.720   10.720   0.000   0.000
0.04125   0.00375   304.591   1137.797   2.085   268.000   10.720   10.720   0.000   0.000
0.04375   0.00375   305.959   1137.797   2.085   268.000   10.720   10.720   0.000   0.000
0.04625   0.00375   307.433   1137.797   2.085   268.000   10.720   10.720   0.000   0.000
0.04875   0.00375   309.049   1137.797   2.085   268.000   10.720   0.000   0.000   16.254
0.00125   0.00325   294.561   1137.797   268.000   268.000   0.000   10.720   0.000   0.000
0.00375   0.00325   294.623   1137.797   268.000   268.000   10.720   10.720   0.000   0.000
0.00625   0.00325   294.748   1137.797   268.000   268.000   10.720   10.720   0.000   0.000
0.00875   0.00325   294.938   1137.797   268.000   268.000   10.720   10.720   0.000   0.000
0.01125   0.00325   295.195   1137.797   268.000   268.000   10.720   10.720   0.000   0.000
0.01375   0.00325   295.521   1137.797   268.000   268.000   10.720   10.720   0.000   0.000
0.01625   0.00325   295.920   1137.797   268.000   268.000   10.720   10.720   0.000   0.000
0.01875   0.00325   296.396   1137.797   268.000   268.000   10.720   10.720   0.000   0.000
0.02125   0.00325   296.953   1137.797   268.000   268.000   10.720   10.720   0.000   0.000
0.02375   0.00325   297.593   1137.797   268.000   268.000   10.720   10.720   0.000   0.000
0.02625   0.00325   298.321   1137.797   268.000   268.000   10.720   10.720   0.000   0.000
0.02875   0.00325   299.137   1137.797   268.000   268.000   10.720   10.720   0.000   0.000
0.03125   0.00325   300.043   1137.797   268.000   268.000   10.720   10.720   0.000   0.000
0.03375   0.00325   301.038   1137.797   268.000   268.000   10.720   10.720   0.000   0.000
0.03625   0.00325   302.125   1137.797   268.000   268.000   10.720   10.720   0.000   0.000
0.03875   0.00325   303.302   1137.797   268.000   268.000   10.720   10.720   0.000   0.000
0.04125   0.00325   304.573   1137.797   268.000   268.000   10.720   10.720   0.000   0.000
0.04375   0.00325   305.940   1137.797   268.000   268.000   10.720   10.720   0.000   0.000
0.04625   0.00325   307.409   1137.797   268.000   268.000   10.720   10.720   0.000   0.000
0.04875   0.00325   308.996   1137.797   268.000   268.000   10.720   0.000   0.000   16.254
0.00125   0.00275   294.560   1137.797   268.000   268.000   0.000   10.720   0.000   0.000
0.00375   0.00275   294.622   1137.797   268.000   268.000   10.720   10.720   0.000   0.000
0.00625   0.00275   294.747   1137.797   268.000   268.000   10.720   10.720   0.000   0.000
0.00875   0.00275   294.937   1137.797   268.000   268.000   10.720   10.720   0.000   0.000
0.01125   0.00275   295.193   1137.797   268.000   268.000   10.720   10.720   0.000   0.000
0.01375   0.00275   295.518   1137.797   268.000   268.000   10.720   10.720   0.000   0.000
0.01625   0.00275   295.917   1137.797   268.000   268.000   10.720   10.720   0.000   0.000
0.01875   0.00275   296.393   1137.797   268.000   268.000   10.720   10.720   0.000   0.000
0.02125   0.00275   296.948   1137.797   268.000   268.000   10.720   10.720   0.000   0.000
0.02375   0.00275   297.588   1137.797   268.000   268.000   10.720   10.720   0.000   0.000
0.02625   0.00275   298.313   1137.797   268.000   268.000   10.720   10.720   0.000   0.000
0.02875   0.00275   299.128   1137.797   268.000   268.000   10.720   10.720   0.000   0.000
0.03125   0.00275   300.032   1137.797   268.000   268.000   10.720   10.720   0.000   0.000
0.03375   0.00275   301.026   1137.797   268.000   268.000   10.720   10.720   0.000   0.000
0.03625   0.00275   302.111   1137.797   268.000   268.000   10.720   10.720   0.000   0.000
0.03875   0.00275   303.288   1137.797   268.000   268.000   10.720   10.720   0.000   0.000
0.04125   0.00275   304.558   1137.797   268.000   268.000   10.720   10.720   0.000   0.000
0.04375   0.00275   305.923   1137.797   268.000   268.000   10.720   10.720   0.000   0.000
0.04625   0.00275   307.388   1137.797   268.000   268.000   10.720   10.720   0.000   0.000
0.04875   0.00275   308.951   1137.797   268.000   268.000   10.720   0.000   0.000   16.254
0.00125   0.00225   294.559   1137.797   268.000   268.000   0.000   10.720   0.000   0.000
0.00375   0.00225   294.621   1137.797   268.000   268.000   10.720   10.720   0.000   0.000
0.00625   0.00225   294.746   1137.797   268.000   268.000   10.720   10.720   0.000   0.000
0.00875   0.00225   294.935   1137.797   268.000   268.000   10.720   10.720   0.000   0.000
0.01125   0.00225   295.191   1137.797   268.000   268.000   10.720   10.720   0.000   0.000
0.01375   0.00225   295.517   1137.797   268.000   268.000   10.720   10.720   0.000   0.000
0.01625   0.00225   295.915   1137.797   268.000   268.000   10.720   10.720   0.000   0.000
0.01875   0.00225   296.390   1137.797   268.000   268.000   10.720   10.720   0.000   0.000
0.02125   0.00225   296.944   1137.797   268.000   268.000   10.720   10.720   0.000   0.000
0.02375   0.00225   297.583   1137.797   268.000   268.000   10.720   10.720   0.000   0.000
0.02625   0.00225   298.307   1137.797   268.000   268.000   10.720   10.720   0.000   0.000
0.02875   0.00225   299.120   1137.797   268.000   268.000   10.720   10.720   0.000   0.000
0.03125   0.00225   300.023   1137.797   268.000   268.000   10.720   10.720   0.000   0.000
0.03375   0.00225   301.016   1137.797   268.000   268.000   10.720   10.720   0.000   0.000
0.03625   0.00225   302.100   1137.797   268.000   268.000   10.720   10.720   0.000   0.000
0.03875   0.00225   303.275   1137.797   268.000   268.000   10.720   10.720   0.000   0.000
0.04125   0.00225   304.545   1137.797   268.000   268.000   10.720   10.720   0.000   0.000
0.04375   0.00225   305.909   1137.797   268.000   268.000   10.720   10.720   0.000   0.000
0.04625   0.00225   307.370   1137.797   268.000   268.000   10.720   10.720   0.000   0.000
0.04875   0.00225   308.916   1137.797   268.000   268.000   10.720   0.000   0.000   16.254
0.00125   0.00175   294.559   1137.797   268.000   268.000   0.000   10.720   0.000   0.000
0.00375   0.00175   294.621   1137.797   268.000   268.000   10.720   10.720   0.000   0.000
0.00625   0.00175   294.745   1137.797   268.000   268.000   10.720   10.720   0.000   0.000
0.00875   0.00175   294.934   1137.797   268.000   268.000   10.720   10.720   0.000   0.000
0.01125   0.00175   295.190   1137.797   268.000   268.000   10.720   10.720   0.000   0.000
0.01375   0.00175   295.515   1137.797   268.000   268.000   10.720   10.720   0.000   0.000
0.01625   0.00175   295.913   1137.797   268.000   268.000   10.720   10.720   0.000   0.000
0.01875   0.00175   296.387   1137.797   268.000   268.000   10.720   10.720   0.000   0.000
0.02125   0.00175   296.941   1137.797   268.000   268.000   10.720   10.720   0.000   0.000