VARIABLES = X, Y, T, ap,an,as,aw,ae,sp,su
ZONE I=20,J=20, F=POINT,t="24.816"
0.00125   0.00975   298.524   1137.797   0.000   268.000   0.000   10.720   0.000   -0.004
0.00375   0.00975   298.768   1137.797   0.000   268.000   10.720   10.720   0.000   -0.004
0.00625   0.00975   299.260   1137.797   0.000   268.000   10.720   10.720   0.000   -0.005
0.00875   0.00975   300.009   1137.797   0.000   268.000   10.720   10.720   0.000   -0.005
0.01125   0.00975   301.030   1137.797   0.000   268.000   10.720   10.720   0.000   -0.006
0.01375   0.00975   302.341   1137.797   0.000   268.000   10.720   10.720   0.000   -0.007
0.01625   0.00975   303.964   1137.797   0.000   268.000   10.720   10.720   0.000   -0.008
0.01875   0.00975   305.924   1137.797   0.000   268.000   10.720   10.720   0.000   -0.010
0.02125   0.00975   308.252   1137.797   0.000   268.000   10.720   10.720   0.000   -0.011
0.02375   0.00975   310.980   1137.797   0.000   268.000   10.720   10.720   0.000   -0.013
0.02625   0.00975   314.150   1137.797   0.000   268.000   10.720   10.720   0.000   -0.016
0.02875   0.00975   317.845   1137.797   0.000   268.000   10.720   10.720   0.000   -0.019
0.03125   0.00975   322.480   1137.797   0.000   268.000   10.720   10.720   0.000   81.055
0.03375   0.00975   326.276   1137.797   0.000   268.000   10.720   10.720   0.000   80.994
0.03625   0.00975   329.647   1137.797   0.000   268.000   10.720   10.720   0.000   80.937
0.03875   0.00975   332.672   1137.797   0.000   268.000   10.720   10.720   0.000   80.885
0.04125   0.00975   335.385   1137.797   0.000   268.000   10.720   10.720   0.000   80.837
0.04375   0.00975   337.809   1137.797   0.000   268.000   10.720   10.720   0.000   80.794
0.04625   0.00975   339.956   1137.797   0.000   268.000   10.720   10.720   0.000   80.754
0.04875   0.00975   341.812   1137.797   0.000   268.000   10.720   0.000   0.000   96.870
0.00125   0.00925   298.523   1137.797   268.000   268.000   0.000   10.720   0.000   0.000
0.00375   0.00925   298.767   1137.797   268.000   268.000   10.720   10.720   0.000   0.000
0.00625   0.00925   299.258   1137.797   268.000   268.000   10.720   10.720   0.000   0.000
0.00875   0.00925   300.008   1137.797   268.000   268.000   10.720   10.720   0.000   0.000
0.01125   0.00925   301.029   1137.797   268.000   268.000   10.720   10.720   0.000   0.000
0.01375   0.00925   302.339   1137.797   268.000   268.000   10.720   10.720   0.000   0.000
0.01625   0.00925   303.962   1137.797   268.000   268.000   10.720   10.720   0.000   0.000
0.01875   0.00925   305.922   1137.797   268.000   268.000   10.720   10.720   0.000   0.000
0.02125   0.00925   308.249   1137.797   268.000   268.000   10.720   10.720   0.000   0.000
0.02375   0.00925   310.976   1137.797   268.000   268.000   10.720   10.720   0.000   0.000
0.02625   0.00925   314.144   1137.797   268.000   268.000   10.720   10.720   0.000   0.000
0.02875   0.00925   317.823   1137.797   268.000   268.000   10.720   10.720   0.000   0.000
0.03125   0.00925   322.228   1137.797   268.000   268.000   10.720   10.720   0.000   0.000
0.03375   0.00925   326.008   1137.797   268.000   268.000   10.720   10.720   0.000   0.000
0.03625   0.00925   329.378   1137.797   268.000   268.000   10.720   10.720   0.000   0.000
0.03875   0.00925   332.402   1137.797   268.000   268.000   10.720   10.720   0.000   0.000
0.04125   0.00925   335.115   1137.797   268.000   268.000   10.720   10.720   0.000   0.000
0.04375   0.00925   337.539   1137.797   268.000   268.000   10.720   10.720   0.000   0.000
0.04625   0.00925   339.687   1137.797   268.000   268.000   10.720   10.720   0.000   0.000
0.04875   0.00925   341.546   1137.797   268.000   268.000   10.720   0.000   0.000   16.152
0.00125   0.00875   298.520   1137.797   268.000   268.000   0.000   10.720   0.000   0.000
0.00375   0.00875   298.764   1137.797   268.000   268.000   10.720   10.720   0.000   0.000
0.00625   0.00875   299.255   1137.797   268.000   268.000   10.720   10.720   0.000   0.000
0.00875   0.00875   300.005   1137.797   268.000   268.000   10.720   10.720   0.000   0.000
0.01125   0.00875   301.025   1137.797   268.000   268.000   10.720   10.720   0.000   0.000
0.01375   0.00875   302.335   1137.797   268.000   268.000   10.720   10.720   0.000   0.000
0.01625   0.00875   303.957   1137.797   268.000   268.000   10.720   10.720   0.000   0.000
0.01875   0.00875   305.917   1137.797   268.000   268.000   10.720   10.720   0.000   0.000
0.02125   0.00875   308.243   1137.797   268.000   268.000   10.720   10.720   0.000   0.000
0.02375   0.00875   310.969   1137.797   268.000   268.000   10.720   10.720   0.000   0.000
0.02625   0.00875   314.133   1137.797   268.000   268.000   10.720   10.720   0.000   0.000
0.02875   0.00875   317.789   1137.797   268.000   268.000   10.720   10.720   0.000   0.000
0.03125   0.00875   322.017   1137.797   268.000   268.000   10.720   10.720   0.000   0.000
0.03375   0.00875   325.775   1137.797   268.000   268.000   10.720   10.720   0.000   0.000
0.03625   0.00875   329.141   1137.797   268.000   268.000   10.720   10.720   0.000   0.000
0.03875   0.00875   332.164   1137.797   268.000   268.000   10.720   10.720   0.000   0.000
0.04125   0.00875   334.876   1137.797   268.000   268.000   10.720   10.720   0.000   0.000
0.04375   0.00875   337.301   1137.797   268.000   268.000   10.720   10.720   0.000   0.000
0.04625   0.00875   339.450   1137.797   268.000   268.000   10.720   10.720   0.000   0.000
0.04875   0.00875   341.315   1137.797   268.000   268.000   10.720   0.000   0.000   16.153
0.00125   0.00825   298.516   1137.797   268.000   268.000   0.000   10.720   0.000   0.000
0.00375   0.00825   298.760   1137.797   268.000   268.000   10.720   10.720   0.000   0.000
0.00625   0.00825   299.251   1137.797   268.000   268.000   10.720   10.720   0.000   0.000
0.00875   0.00825   300.000   1137.797   268.000   268.000   10.720   10.720   0.000   0.000
0.01125   0.00825   301.020   1137.797   268.000   268.000   10.720   10.720   0.000   0.000
0.01375   0.00825   302.329   1137.797   268.000   268.000   10.720   10.720   0.000   0.000
0.01625   0.00825   303.950   1137.797   268.000   268.000   10.720   10.720   0.000   0.000
0.01875   0.00825   305.909   1137.797   268.000   268.000   10.720   10.720   0.000   0.000
0.02125   0.00825   308.234   1137.797   268.000   268.000   10.720   10.720   0.000   0.000
0.02375   0.00825   310.958   1137.797   268.000   268.000   10.720   10.720   0.000   0.000
0.02625   0.00825   314.117   1137.797   268.000   268.000   10.720   10.720   0.000   0.000
0.02875   0.00825   317.747   1137.797   268.000   268.000   10.720   10.720   0.000   0.000
0.03125   0.00825   321.843   1137.797   268.000   268.000   10.720   10.720   0.000   0.000
0.03375   0.00825   325.576   1137.797   268.000   268.000   10.720   10.720   0.000   0.000
0.03625   0.00825   328.936   1137.797   268.000   268.000   10.720   10.720   0.000   0.000
0.03875   0.00825   331.958   1137.797   268.000   268.000   10.720   10.720   0.000   0.000
0.04125   0.00825   334.669   1137.797   268.000   268.000   10.720   10.720   0.000   0.000
0.04375   0.00825   337.094   1137.797   268.000   268.000   10.720   10.720   0.000   0.000
0.04625   0.00825   339.246   1137.797   268.000   268.000   10.720   10.720   0.000   0.000
0.04875   0.00825   341.119   1137.797   268.000   268.000   10.720   0.000   0.000   16.154
0.00125   0.00775   298.511   1137.797   268.000   268.000   0.000   10.720   0.000   0.000
0.00375   0.00775   298.754   1137.797   268.000   268.000   10.720   10.720   0.000   0.000
0.00625   0.00775   299.245   1137.797   268.000   268.000   10.720   10.720   0.000   0.000
0.00875   0.00775   299.993   1137.797   268.000   268.000   10.720   10.720   0.000   0.000
0.01125   0.00775   301.013   1137.797   268.000   268.000   10.720   10.720   0.000   0.000
0.01375   0.00775   302.321   1137.797   268.000   268.000   10.720   10.720   0.000   0.000
0.01625   0.00775   303.941   1137.797   268.000   268.000   10.720   10.720   0.000   0.000
0.01875   0.00775   305.899   1137.797   268.000   268.000   10.720   10.720   0.000   0.000
0.02125   0.00775   308.222   1137.797   268.000   268.000   10.720   10.720   0.000   0.000
0.02375   0.00775   310.944   1137.797   268.000   268.000   10.720   10.720   0.000   0.000
0.02625   0.00775   314.096   1137.797   268.000   268.000   10.720   10.720   0.000   0.000
0.02875   0.00775   317.703   1137.797   268.000   268.000   10.720   10.720   0.000   0.000
0.03125   0.00775   321.700   1137.797   268.000   268.000   10.720   10.720   0.000   0.000
0.03375   0.00775   325.409   1137.797   268.000   268.000   10.720   10.720   0.000   0.000
0.03625   0.00775   328.763   1137.797   268.000   268.000   10.720   10.720   0.000   0.000
0.03875   0.00775   331.783   1137.797   268.000   268.000   10.720   10.720   0.000   0.000
0.04125   0.00775   334.494   1137.797   268.000   268.000   10.720   10.720   0.000   0.000
0.04375   0.00775   336.918   1137.797   268.000   268.000   10.720   10.720   0.000   0.000
0.04625   0.00775   339.073   1137.797   268.000   268.000   10.720   10.720   0.000   0.000
0.04875   0.00775   340.958   1137.797   268.000   268.000   10.720   0.000   0.000   16.154
0.00125   0.00725   298.504   1137.797   268.000   268.000   0.000   10.720   0.000   0.000
0.00375   0.00725   298.747   1137.797   268.000   268.000   10.720   10.720   0.000   0.000
0.00625   0.00725   299.238   1137.797   268.000   268.000   10.720   10.720   0.000   0.000
0.00875   0.00725   299.985   1137.797   268.000   268.000   10.720   10.720   0.000   0.000
0.01125   0.00725   301.004   1137.797   268.000   268.000   10.720   10.720   0.000   0.000
0.01375   0.00725   302.311   1137.797   268.000   268.000   10.720   10.720   0.000   0.000
0.01625   0.00725   303.930   1137.797   268.000   268.000   10.720   10.720   0.000   0.000
0.01875   0.00725   305.886   1137.797   268.000   268.000   10.720   10.720   0.000   0.000
0.02125   0.00725   308.208   1137.797   268.000   268.000   10.720   10.720   0.000   0.000
0.02375   0.00725   310.927   1137.797   268.000   268.000   10.720   10.720   0.000   0.000
0.02625   0.00725   314.073   1137.797   268.000   268.000   10.720   10.720   0.000   0.000
0.02875   0.00725   317.659   1137.797   268.000   268.000   10.720   10.720   0.000   0.000
0.03125   0.00725   321.586   1137.797   268.000   268.000   10.720   10.720   0.000   0.000
0.03375   0.00725   325.274   1137.797   268.000   268.000   10.720   10.720   0.000   0.000
0.03625   0.00725   328.622   1137.797   268.000   268.000   10.720   10.720   0.000   0.000
0.03875   0.00725   331.640   1137.797   268.000   268.000   10.720   10.720   0.000   0.000
0.04125   0.00725   334.349   1137.797   268.000   268.000   10.720   10.720   0.000   0.000
0.04375   0.00725   336.773   1137.797   268.000   268.000   10.720   10.720   0.000   0.000
0.04625   0.00725   338.932   1137.797   268.000   268.000   10.720   10.720   0.000   0.000
0.04875   0.00725   340.834   1137.797   268.000   268.000   10.720   0.000   0.000   16.155
0.00125   0.00675   298.496   1137.797   268.000   268.000   0.000   10.720   0.000   0.000
0.00375   0.00675   298.739   1137.797   268.000   268.000   10.720   10.720   0.000   0.000
0.00625   0.00675   299.229   1137.797   268.000   268.000   10.720   10.720   0.000   0.000
0.00875   0.00675   299.976   1137.797   268.000   268.000   10.720   10.720   0.000   0.000
0.01125   0.00675   300.993   1137.797   268.000   268.000   10.720   10.720   0.000   0.000
0.01375   0.00675   302.299   1137.797   268.000   268.000   10.720   10.720   0.000   0.000
0.01625   0.00675   303.916   1137.797   268.000   268.000   10.720   10.720   0.000   0.000
0.01875   0.00675   305.870   1137.797   268.000   268.000   10.720   10.720   0.000   0.000
0.02125   0.00675   308.190   1137.797   268.000   268.000   10.720   10.720   0.000   0.000
0.02375   0.00675   310.906   1137.797   268.000   268.000   10.720   10.720   0.000   0.000
0.02625   0.00675   314.047   1137.797   268.000   268.000   10.720   10.720   0.000   0.000
0.02875   0.00675   317.617   1137.797   268.000   268.000   10.720   10.720   0.000   0.000
0.03125   0.00675   321.498   1137.797   268.000   268.000   10.720   10.720   0.000   0.000
0.03375   0.00675   325.170   1137.797   268.000   268.000   10.720   10.720   0.000   0.000
0.03625   0.00675   328.514   1137.797   268.000   268.000   10.720   10.720   0.000   0.000
0.03875   0.00675   331.529   1137.797   268.000   268.000   10.720   10.720   0.000   0.000
0.04125   0.00675   334.236   1137.797   268.000   268.000   10.720   10.720   0.000   0.000
0.04375   0.00675   336.660   1137.797   268.000   268.000   10.720   10.720   0.000   0.000
0.04625   0.00675   338.821   1137.797   268.000   268.000   10.720   10.720   0.000   0.000
0.04875   0.00675   340.746   1137.797   268.000   268.000   10.720   0.000   0.000   16.155
0.00125   0.00625   298.487   1137.797   268.000   2.085   0.000   10.720   0.000   0.000
0.00375   0.00625   298.729   1137.797   268.000   2.085   10.720   10.720   0.000   0.000
0.00625   0.00625   299.219   1137.797   268.000   2.085   10.720   10.720   0.000   0.000
0.00875   0.00625   299.965   1137.797   268.000   2.085   10.720   10.720   0.000   0.000
0.01125   0.00625   300.981   1137.797   268.000   2.085   10.720   10.720   0.000   0.000
0.01375   0.00625   302.285   1137.797   268.000   2.085   10.720   10.720   0.000   0.000
0.01625   0.00625   303.901   1137.797   268.000   2.085   10.720   10.720   0.000   0.000
0.01875   0.00625   305.852   1137.797   268.000   2.085   10.720   10.720   0.000   0.000
0.02125   0.00625   308.170   1137.797   268.000   2.085   10.720   10.720   0.000   0.000
0.02375   0.00625   310.883   1137.797   268.000   2.085   10.720   10.720   0.000   0.000
0.02625   0.00625   314.019   1137.797   268.000   2.085   10.720   10.720   0.000   0.000
0.02875   0.00625   317.579   1137.797   268.000   2.085   10.720   10.720   0.000   0.000
0.03125   0.00625   321.435   1137.797   268.000   2.085   10.720   10.720   0.000   0.000
0.03375   0.00625   325.097   1137.797   268.000   2.085   10.720   10.720   0.000   0.000
0.03625   0.00625   328.437   1137.797   268.000   2.085   10.720   10.720   0.000   0.000
0.03875   0.00625   331.449   1137.797   268.000   2.085   10.720   10.720   0.000   0.000
0.04125   0.00625   334.155   1137.797   268.000   2.085   10.720   10.720   0.000   0.000
0.04375   0.00625   336.577   1137.797   268.000   2.085   10.720   10.720   0.000   0.000
0.04625   0.00625   338.741   1137.797   268.000   2.085   10.720   10.720   0.000   0.000
0.04875   0.00625   340.696   1137.797   268.000   2.085   10.720   0.000   0.000   16.155
0.00125   0.00575   297.105   686.719   2.085   1.046   0.000   0.042   0.000   0.000
0.00375   0.00575   297.303   686.719   2.085   1.046   0.042   0.042   0.000   0.000
0.00625   0.00575   297.705   686.719   2.085   1.046   0.042   0.042   0.000   0.000
0.00875   0.00575   298.318   686.719   2.085   1.046   0.042   0.042   0.000   0.000
0.01125   0.00575   299.157   686.719   2.085   1.046   0.042   0.042   0.000   0.000
0.01375   0.00575   300.239   686.719   2.085   1.046   0.042   0.042   0.000   0.000
0.01625   0.00575   301.585   686.719   2.085   1.046   0.042   0.042   0.000   0.000
0.01875   0.00575   303.221   686.719   2.085   1.046   0.042   0.042   0.000   0.000
0.02125   0.00575   305.174   686.719   2.085   1.046   0.042   0.042   0.000   0.000
0.02375   0.00575   307.475   686.719   2.085   1.046   0.042   0.042   0.000   0.000
0.02625   0.00575   310.151   686.719   2.085   1.046   0.042   0.042   0.000   0.000
0.02875   0.00575   313.203   686.719   2.085   1.046   0.042   0.042   0.000   0.000
0.03125   0.00575   316.519   686.719   2.085   1.046   0.042   0.042   0.000   0.000
0.03375   0.00575   319.692   686.719   2.085   1.046   0.042   0.042   0.000   0.000
0.03625   0.00575   322.608   686.719   2.085   1.046   0.042   0.042   0.000   0.000
0.03875   0.00575   325.266   686.719   2.085   1.046   0.042   0.042   0.000   0.000
0.04125   0.00575   327.686   686.719   2.085   1.046   0.042   0.042   0.000   0.000
0.04375   0.00575   329.908   686.719   2.085   1.046   0.042   0.042   0.000   0.000
0.04625   0.00575   332.196   686.719   2.085   1.046   0.042   0.042   0.000   0.000
0.04875   0.00575   339.227   686.719   2.085   1.046   0.042   0.000   0.000   6.060
0.00125   0.00525   295.411   686.719   1.046   1.046   0.000   0.042   0.000   0.000
0.00375   0.00525   295.544   686.719   1.046   1.046   0.042   0.042   0.000   0.000
0.00625   0.00525   295.815   686.719   1.046   1.046   0.042   0.042   0.000   0.000
0.00875   0.00525   296.230   686.719   1.046   1.046   0.042   0.042   0.000   0.000
0.01125   0.00525   296.800   686.719   1.046   1.046   0.042   0.042   0.000   0.000
0.01375   0.00525   297.542   686.719   1.046   1.046   0.042   0.042   0.000   0.000
0.01625   0.00525   298.472   686.719   1.046   1.046   0.042   0.042   0.000   0.000
0.01875   0.00525   299.612   686.719   1.046   1.046   0.042   0.042   0.000   0.000
0.02125   0.00525   300.986   686.719   1.046   1.046   0.042   0.042   0.000   0.000
0.02375   0.00525   302.621   686.719   1.046   1.046   0.042   0.042   0.000   0.000
0.02625   0.00525   304.538   686.719   1.046   1.046   0.042   0.042   0.000   0.000
0.02875   0.00525   306.743   686.719   1.046   1.046   0.042   0.042   0.000   0.000
0.03125   0.00525   309.157   686.719   1.046   1.046   0.042   0.042   0.000   0.000
0.03375   0.00525   311.509   686.719   1.046   1.046   0.042   0.042   0.000   0.000
0.03625   0.00525   313.720   686.719   1.046   1.046   0.042   0.042   0.000   0.000
0.03875   0.00525   315.792   686.719   1.046   1.046   0.042   0.042   0.000   0.000
0.04125   0.00525   317.747   686.719   1.046   1.046   0.042   0.042   0.000   0.000
0.04375   0.00525   319.639   686.719   1.046   1.046   0.042   0.042   0.000   0.000
0.04625   0.00525   322.045   686.719   1.046   1.046   0.042   0.042   0.000   0.000
0.04875   0.00525   333.901   686.719   1.046   1.046   0.042   0.000   0.000   6.067
0.00125   0.00475   294.443   686.719   1.046   1.046   0.000   0.042   0.000   0.000
0.00375   0.00475   294.530   686.719   1.046   1.046   0.042   0.042   0.000   0.000
0.00625   0.00475   294.708   686.719   1.046   1.046   0.042   0.042   0.000   0.000
0.00875   0.00475   294.983   686.719   1.046   1.046   0.042   0.042   0.000   0.000
0.01125   0.00475   295.362   686.719   1.046   1.046   0.042   0.042   0.000   0.000
0.01375   0.00475   295.856   686.719   1.046   1.046   0.042   0.042   0.000   0.000
0.01625   0.00475   296.479   686.719   1.046   1.046   0.042   0.042   0.000   0.000
0.01875   0.00475   297.246   686.719   1.046   1.046   0.042   0.042   0.000   0.000
0.02125   0.00475   298.177   686.719   1.046   1.046   0.042   0.042   0.000   0.000
0.02375   0.00475   299.289   686.719   1.046   1.046   0.042   0.042   0.000   0.000
0.02625   0.00475   300.600   686.719   1.046   1.046   0.042   0.042   0.000   0.000
0.02875   0.00475   302.115   686.719   1.046   1.046   0.042   0.042   0.000   0.000
0.03125   0.00475   303.790   686.719   1.046   1.046   0.042   0.042   0.000   0.000
0.03375   0.00475   305.472   686.719   1.046   1.046   0.042   0.042   0.000   0.000
0.03625   0.00475   307.116   686.719   1.046   1.046   0.042   0.042   0.000   0.000
0.03875   0.00475   308.725   686.719   1.046   1.046   0.042   0.042   0.000   0.000
0.04125   0.00475   310.317   686.719   1.046   1.046   0.042   0.042   0.000   0.000
0.04375   0.00475   311.943   686.719   1.046   1.046   0.042   0.042   0.000   0.000
0.04625   0.00475   314.173   686.719   1.046   1.046   0.042   0.042   0.000   0.000
0.04875   0.00475   325.950   686.719   1.046   1.046   0.042   0.000   0.000   6.077
0.00125   0.00425   293.966   686.719   1.046   2.085   0.000   0.042   0.000   0.000
0.00375   0.00425   294.024   686.719   1.046   2.085   0.042   0.042   0.000   0.000
0.00625   0.00425   294.141   686.719   1.046   2.085   0.042   0.042   0.000   0.000
0.00875   0.00425   294.321   686.719   1.046   2.085   0.042   0.042   0.000   0.000
0.01125   0.00425   294.568   686.719   1.046   2.085   0.042   0.042   0.000   0.000
0.01375   0.00425   294.890   686.719   1.046   2.085   0.042   0.042   0.000   0.000
0.01625   0.00425   295.294   686.719   1.046   2.085   0.042   0.042   0.000   0.000
0.01875   0.00425   295.788   686.719   1.046   2.085   0.042   0.042   0.000   0.000
0.02125   0.00425   296.384   686.719   1.046   2.085   0.042   0.042   0.000   0.000
0.02375   0.00425   297.092   686.719   1.046   2.085   0.042   0.042   0.000   0.000
0.02625   0.00425   297.921   686.719   1.046   2.085   0.042   0.042   0.000   0.000
0.02875   0.00425   298.876   686.719   1.046   2.085   0.042   0.042   0.000   0.000
0.03125   0.00425   299.946   686.719   1.046   2.085   0.042   0.042   0.000   0.000
0.03375   0.00425   301.083   686.719   1.046   2.085   0.042   0.042   0.000   0.000
0.03625   0.00425   302.274   686.719   1.046   2.085   0.042   0.042   0.000   0.000
0.03875   0.00425   303.523   686.719   1.046   2.085   0.042   0.042   0.000   0.000
0.04125   0.00425   304.841   686.719   1.046   2.085   0.042   0.042   0.000   0.000
0.04375   0.00425   306.249   686.719   1.046   2.085   0.042   0.042   0.000   0.000
0.04625   0.00425   308.004   686.719   1.046   2.085   0.042   0.042   0.000   0.000
0.04875   0.00425   314.785   686.719   1.046   2.085   0.042   0.000   0.000   6.089
0.00125   0.00375   293.900   1137.797   2.085   268.000   0.000   10.720   0.000   0.000
0.00375   0.00375   293.948   1137.797   2.085   268.000   10.720   10.720   0.000   0.000
0.00625   0.00375   294.045   1137.797   2.085   268.000   10.720   10.720   0.000   0.000
0.00875   0.00375   294.193   1137.797   2.085   268.000   10.720   10.720   0.000   0.000
0.01125   0.00375   294.396   1137.797   2.085   268.000   10.720   10.720   0.000   0.000
0.01375   0.00375   294.657   1137.797   2.085   268.000   10.720   10.720   0.000   0.000
0.01625   0.00375   294.980   1137.797   2.085   268.000   10.720   10.720   0.000   0.000
0.01875   0.00375   295.372   1137.797   2.085   268.000   10.720   10.720   0.000   0.000
0.02125   0.00375   295.837   1137.797   2.085   268.000   10.720   10.720   0.000   0.000
0.02375   0.00375   296.382   1137.797   2.085   268.000   10.720   10.720   0.000   0.000
0.02625   0.00375   297.010   1137.797   2.085   268.000   10.720   10.720   0.000   0.000
0.02875   0.00375   297.728   1137.797   2.085   268.000   10.720   10.720   0.000   0.000
0.03125   0.00375   298.538   1137.797   2.085   268.000   10.720   10.720   0.000   0.000
0.03375   0.00375   299.442   1137.797   2.085   268.000   10.720   10.720   0.000   0.000
0.03625   0.00375   300.444   1137.797   2.085   268.000   10.720   10.720   0.000   0.000
0.03875   0.00375   301.547   1137.797   2.085   268.000   10.720   10.720   0.000   0.000
0.04125   0.00375   302.755   1137.797   2.085   268.000   10.720   10.720   0.000   0.000
0.04375   0.00375   304.073   1137.797   2.085   268.000   10.720   10.720   0.000   0.000
0.04625   0.00375   305.512   1137.797   2.085   268.000   10.720   10.720   0.000   0.000
0.04875   0.00375   307.112   1137.797   2.085   268.000   10.720   0.000   0.000   16.259
0.00125   0.00325   293.900   1137.797   268.000   268.000   0.000   10.720   0.000   0.000
0.00375   0.00325   293.948   1137.797   268.000   268.000   10.720   10.720   0.000   0.000
0.00625   0.00325   294.044   1137.797   268.000   268.000   10.720   10.720   0.000   0.000
0.00875   0.00325   294.192   1137.797   268.000   268.000   10.720   10.720   0.000   0.000
0.01125   0.00325   294.395   1137.797   268.000   268.000   10.720   10.720   0.000   0.000
0.01375   0.00325   294.655   1137.797   268.000   268.000   10.720   10.720   0.000   0.000
0.01625   0.00325   294.978   1137.797   268.000   268.000   10.720   10.720   0.000   0.000
0.01875   0.00325   295.369   1137.797   268.000   268.000   10.720   10.720   0.000   0.000
0.02125   0.00325   295.834   1137.797   268.000   268.000   10.720   10.720   0.000   0.000
0.02375   0.00325   296.377   1137.797   268.000   268.000   10.720   10.720   0.000   0.000
0.02625   0.00325   297.004   1137.797   268.000   268.000   10.720   10.720   0.000   0.000
0.02875   0.00325   297.720   1137.797   268.000   268.000   10.720   10.720   0.000   0.000
0.03125   0.00325   298.528   1137.797   268.000   268.000   10.720   10.720   0.000   0.000
0.03375   0.00325   299.431   1137.797   268.000   268.000   10.720   10.720   0.000   0.000
0.03625   0.00325   300.431   1137.797   268.000   268.000   10.720   10.720   0.000   0.000
0.03875   0.00325   301.533   1137.797   268.000   268.000   10.720   10.720   0.000   0.000
0.04125   0.00325   302.740   1137.797   268.000   268.000   10.720   10.720   0.000   0.000
0.04375   0.00325   304.058   1137.797   268.000   268.000   10.720   10.720   0.000   0.000
0.04625   0.00325   305.493   1137.797   268.000   268.000   10.720   10.720   0.000   0.000
0.04875   0.00325   307.062   1137.797   268.000   268.000   10.720   0.000   0.000   16.259
0.00125   0.00275   293.899   1137.797   268.000   268.000   0.000   10.720   0.000   0.000
0.00375   0.00275   293.947   1137.797   268.000   268.000   10.720   10.720   0.000   0.000
0.00625   0.00275   294.044   1137.797   268.000   268.000   10.720   10.720   0.000   0.000
0.00875   0.00275   294.192   1137.797   268.000   268.000   10.720   10.720   0.000   0.000
0.01125   0.00275   294.394   1137.797   268.000   268.000   10.720   10.720   0.000   0.000
0.01375   0.00275   294.654   1137.797   268.000   268.000   10.720   10.720   0.000   0.000
0.01625   0.00275   294.976   1137.797   268.000   268.000   10.720   10.720   0.000   0.000
0.01875   0.00275   295.367   1137.797   268.000   268.000   10.720   10.720   0.000   0.000
0.02125   0.00275   295.830   1137.797   268.000   268.000   10.720   10.720   0.000   0.000
0.02375   0.00275   296.373   1137.797   268.000   268.000   10.720   10.720   0.000   0.000
0.02625   0.00275   296.999   1137.797   268.000   268.000   10.720   10.720   0.000   0.000
0.02875   0.00275   297.713   1137.797   268.000   268.000   10.720   10.720   0.000   0.000
0.03125   0.00275   298.520   1137.797   268.000   268.000   10.720   10.720   0.000   0.000
0.03375   0.00275   299.421   1137.797   268.000   268.000   10.720   10.720   0.000   0.000
0.03625   0.00275   300.421   1137.797   268.000   268.000   10.720   10.720   0.000   0.000
0.03875   0.00275   301.522   1137.797   268.000   268.000   10.720   10.720   0.000   0.000
0.04125   0.00275   302.728   1137.797   268.000   268.000   10.720   10.720   0.000   0.000
0.04375   0.00275   304.044   1137.797   268.000   268.000   10.720   10.720   0.000   0.000
0.04625   0.00275   305.476   1137.797   268.000   268.000   10.720   10.720   0.000   0.000
0.04875   0.00275   307.022   1137.797   268.000   268.000   10.720   0.000   0.000   16.259
0.00125   0.00225   293.899   1137.797   268.000   268.000   0.000   10.720   0.000   0.000
0.00375   0.00225   293.947   1137.797   268.000   268.000   10.720   10.720   0.000   0.000
0.00625   0.00225   294.043   1137.797   268.000   268.000   10.720   10.720   0.000   0.000
0.00875   0.00225   294.191   1137.797   268.000   268.000   10.720   10.720   0.000   0.000
0.01125   0.00225   294.393   1137.797   268.000   268.000   10.720   10.720   0.000   0.000
0.01375   0.00225   294.653   1137.797   268.000   268.000   10.720   10.720   0.000   0.000
0.01625   0.00225   294.975   1137.797   268.000   268.000   10.720   10.720   0.000   0.000
0.01875   0.00225   295.365   1137.797   268.000   268.000   10.720   10.720   0.000   0.000
0.02125   0.00225   295.828   1137.797   268.000   268.000   10.720   10.720   0.000   0.000
0.02375   0.00225   296.369   1137.797   268.000   268.000   10.720   10.720   0.000   0.000
0.02625   0.00225   296.994   1137.797   268.000   268.000   10.720   10.720   0.000   0.000
0.02875   0.00225   297.708   1137.797   268.000   268.000   10.720   10.720   0.000   0.000
0.03125   0.00225   298.513   1137.797   268.000   268.000   10.720   10.720   0.000   0.000
0.03375   0.00225   299.413   1137.797   268.000   268.000   10.720   10.720   0.000   0.000
0.03625   0.00225   300.412   1137.797   268.000   268.000   10.720   10.720   0.000   0.000
0.03875   0.00225   301.512   1137.797   268.000   268.000   10.720   10.720   0.000   0.000
0.04125   0.00225   302.718   1137.797   268.000   268.000   10.720   10.720   0.000   0.000
0.04375   0.00225   304.033   1137.797   268.000   268.000   10.720   10.720   0.000   0.000
0.04625   0.00225   305.460   1137.797   268.000   268.000   10.720   10.720   0.000   0.000
0.04875   0.00225   306.989   1137.797   268.000   268.000   10.720   0.000   0.000   16.259
0.00125   0.00175   293.899   1137.797   268.000   268.000   0.000   10.720   0.000   0.000
0.00375   0.00175   293.946   1137.797   268.000   268.000   10.720   10.720   0.000   0.000
0.00625   0.00175   294.043   1137.797   268.000   268.000   10.720   10.720   0.000   0.000
0.00875   0.00175   294.191   1137.797   268.000   268.000   10.720   10.720   0.000   0.000
0.01125   0.00175   294.392   1137.797   268.000   268.000   10.720   10.720   0.000   0.000
0.01375   0.00175   294.652   1137.797   268.000   268.000   10.720   10.720   0.000   0.000
0.01625   0.00175   294.974   1137.797   268.000   268.000   10.720   10.720   0.000   0.000
0.01875   0.00175   295.363   1137.797   268.000   268.000   10.720   10.720   0.000   0.000
0.02125   0.00175   295.826   1137.797   268.000   268.000   10.720   10.720   0.000   0.000