VARIABLES = X, Y, T, ap,an,as,aw,ae,sp,su
ZONE I=20,J=20, F=POINT,t="15.836"
0.00125   0.00975   294.831   1137.797   0.000   268.000   0.000   10.720   0.000   -0.001
0.00375   0.00975   294.979   1137.797   0.000   268.000   10.720   10.720   0.000   -0.001
0.00625   0.00975   295.282   1137.797   0.000   268.000   10.720   10.720   0.000   -0.002
0.00875   0.00975   295.752   1137.797   0.000   268.000   10.720   10.720   0.000   -0.002
0.01125   0.00975   296.408   1137.797   0.000   268.000   10.720   10.720   0.000   -0.003
0.01375   0.00975   297.275   1137.797   0.000   268.000   10.720   10.720   0.000   -0.003
0.01625   0.00975   298.383   1137.797   0.000   268.000   10.720   10.720   0.000   -0.004
0.01875   0.00975   299.768   1137.797   0.000   268.000   10.720   10.720   0.000   -0.005
0.02125   0.00975   301.473   1137.797   0.000   268.000   10.720   10.720   0.000   -0.006
0.02375   0.00975   303.543   1137.797   0.000   268.000   10.720   10.720   0.000   -0.008
0.02625   0.00975   306.036   1137.797   0.000   268.000   10.720   10.720   0.000   -0.010
0.02875   0.00975   309.051   1137.797   0.000   268.000   10.720   10.720   0.000   -0.012
0.03125   0.00975   313.022   1137.797   0.000   268.000   10.720   10.720   0.000   81.200
0.03375   0.00975   316.185   1137.797   0.000   268.000   10.720   10.720   0.000   81.153
0.03625   0.00975   318.973   1137.797   0.000   268.000   10.720   10.720   0.000   81.111
0.03875   0.00975   321.480   1137.797   0.000   268.000   10.720   10.720   0.000   81.071
0.04125   0.00975   323.758   1137.797   0.000   268.000   10.720   10.720   0.000   81.035
0.04375   0.00975   325.842   1137.797   0.000   268.000   10.720   10.720   0.000   81.001
0.04625   0.00975   327.757   1137.797   0.000   268.000   10.720   10.720   0.000   80.969
0.04875   0.00975   329.496   1137.797   0.000   268.000   10.720   0.000   0.000   97.133
0.00125   0.00925   294.830   1137.797   268.000   268.000   0.000   10.720   0.000   0.000
0.00375   0.00925   294.978   1137.797   268.000   268.000   10.720   10.720   0.000   0.000
0.00625   0.00925   295.281   1137.797   268.000   268.000   10.720   10.720   0.000   0.000
0.00875   0.00925   295.751   1137.797   268.000   268.000   10.720   10.720   0.000   0.000
0.01125   0.00925   296.407   1137.797   268.000   268.000   10.720   10.720   0.000   0.000
0.01375   0.00925   297.274   1137.797   268.000   268.000   10.720   10.720   0.000   0.000
0.01625   0.00925   298.382   1137.797   268.000   268.000   10.720   10.720   0.000   0.000
0.01875   0.00925   299.767   1137.797   268.000   268.000   10.720   10.720   0.000   0.000
0.02125   0.00925   301.471   1137.797   268.000   268.000   10.720   10.720   0.000   0.000
0.02375   0.00925   303.540   1137.797   268.000   268.000   10.720   10.720   0.000   0.000
0.02625   0.00925   306.030   1137.797   268.000   268.000   10.720   10.720   0.000   0.000
0.02875   0.00925   309.030   1137.797   268.000   268.000   10.720   10.720   0.000   0.000
0.03125   0.00925   312.770   1137.797   268.000   268.000   10.720   10.720   0.000   0.000
0.03375   0.00925   315.918   1137.797   268.000   268.000   10.720   10.720   0.000   0.000
0.03625   0.00925   318.703   1137.797   268.000   268.000   10.720   10.720   0.000   0.000
0.03875   0.00925   321.210   1137.797   268.000   268.000   10.720   10.720   0.000   0.000
0.04125   0.00925   323.488   1137.797   268.000   268.000   10.720   10.720   0.000   0.000
0.04375   0.00925   325.572   1137.797   268.000   268.000   10.720   10.720   0.000   0.000
0.04625   0.00925   327.487   1137.797   268.000   268.000   10.720   10.720   0.000   0.000
0.04875   0.00925   329.230   1137.797   268.000   268.000   10.720   0.000   0.000   16.194
0.00125   0.00875   294.829   1137.797   268.000   268.000   0.000   10.720   0.000   0.000
0.00375   0.00875   294.977   1137.797   268.000   268.000   10.720   10.720   0.000   0.000
0.00625   0.00875   295.280   1137.797   268.000   268.000   10.720   10.720   0.000   0.000
0.00875   0.00875   295.750   1137.797   268.000   268.000   10.720   10.720   0.000   0.000
0.01125   0.00875   296.405   1137.797   268.000   268.000   10.720   10.720   0.000   0.000
0.01375   0.00875   297.271   1137.797   268.000   268.000   10.720   10.720   0.000   0.000
0.01625   0.00875   298.379   1137.797   268.000   268.000   10.720   10.720   0.000   0.000
0.01875   0.00875   299.763   1137.797   268.000   268.000   10.720   10.720   0.000   0.000
0.02125   0.00875   301.466   1137.797   268.000   268.000   10.720   10.720   0.000   0.000
0.02375   0.00875   303.534   1137.797   268.000   268.000   10.720   10.720   0.000   0.000
0.02625   0.00875   306.021   1137.797   268.000   268.000   10.720   10.720   0.000   0.000
0.02875   0.00875   308.997   1137.797   268.000   268.000   10.720   10.720   0.000   0.000
0.03125   0.00875   312.561   1137.797   268.000   268.000   10.720   10.720   0.000   0.000
0.03375   0.00875   315.685   1137.797   268.000   268.000   10.720   10.720   0.000   0.000
0.03625   0.00875   318.467   1137.797   268.000   268.000   10.720   10.720   0.000   0.000
0.03875   0.00875   320.973   1137.797   268.000   268.000   10.720   10.720   0.000   0.000
0.04125   0.00875   323.250   1137.797   268.000   268.000   10.720   10.720   0.000   0.000
0.04375   0.00875   325.334   1137.797   268.000   268.000   10.720   10.720   0.000   0.000
0.04625   0.00875   327.251   1137.797   268.000   268.000   10.720   10.720   0.000   0.000
0.04875   0.00875   328.999   1137.797   268.000   268.000   10.720   0.000   0.000   16.195
0.00125   0.00825   294.827   1137.797   268.000   268.000   0.000   10.720   0.000   0.000
0.00375   0.00825   294.975   1137.797   268.000   268.000   10.720   10.720   0.000   0.000
0.00625   0.00825   295.278   1137.797   268.000   268.000   10.720   10.720   0.000   0.000
0.00875   0.00825   295.747   1137.797   268.000   268.000   10.720   10.720   0.000   0.000
0.01125   0.00825   296.402   1137.797   268.000   268.000   10.720   10.720   0.000   0.000
0.01375   0.00825   297.268   1137.797   268.000   268.000   10.720   10.720   0.000   0.000
0.01625   0.00825   298.374   1137.797   268.000   268.000   10.720   10.720   0.000   0.000
0.01875   0.00825   299.758   1137.797   268.000   268.000   10.720   10.720   0.000   0.000
0.02125   0.00825   301.460   1137.797   268.000   268.000   10.720   10.720   0.000   0.000
0.02375   0.00825   303.526   1137.797   268.000   268.000   10.720   10.720   0.000   0.000
0.02625   0.00825   306.007   1137.797   268.000   268.000   10.720   10.720   0.000   0.000
0.02875   0.00825   308.957   1137.797   268.000   268.000   10.720   10.720   0.000   0.000
0.03125   0.00825   312.388   1137.797   268.000   268.000   10.720   10.720   0.000   0.000
0.03375   0.00825   315.487   1137.797   268.000   268.000   10.720   10.720   0.000   0.000
0.03625   0.00825   318.263   1137.797   268.000   268.000   10.720   10.720   0.000   0.000
0.03875   0.00825   320.767   1137.797   268.000   268.000   10.720   10.720   0.000   0.000
0.04125   0.00825   323.044   1137.797   268.000   268.000   10.720   10.720   0.000   0.000
0.04375   0.00825   325.128   1137.797   268.000   268.000   10.720   10.720   0.000   0.000
0.04625   0.00825   327.047   1137.797   268.000   268.000   10.720   10.720   0.000   0.000
0.04875   0.00825   328.803   1137.797   268.000   268.000   10.720   0.000   0.000   16.196
0.00125   0.00775   294.825   1137.797   268.000   268.000   0.000   10.720   0.000   0.000
0.00375   0.00775   294.973   1137.797   268.000   268.000   10.720   10.720   0.000   0.000
0.00625   0.00775   295.275   1137.797   268.000   268.000   10.720   10.720   0.000   0.000
0.00875   0.00775   295.744   1137.797   268.000   268.000   10.720   10.720   0.000   0.000
0.01125   0.00775   296.398   1137.797   268.000   268.000   10.720   10.720   0.000   0.000
0.01375   0.00775   297.263   1137.797   268.000   268.000   10.720   10.720   0.000   0.000
0.01625   0.00775   298.369   1137.797   268.000   268.000   10.720   10.720   0.000   0.000
0.01875   0.00775   299.751   1137.797   268.000   268.000   10.720   10.720   0.000   0.000
0.02125   0.00775   301.451   1137.797   268.000   268.000   10.720   10.720   0.000   0.000
0.02375   0.00775   303.515   1137.797   268.000   268.000   10.720   10.720   0.000   0.000
0.02625   0.00775   305.990   1137.797   268.000   268.000   10.720   10.720   0.000   0.000
0.02875   0.00775   308.916   1137.797   268.000   268.000   10.720   10.720   0.000   0.000
0.03125   0.00775   312.248   1137.797   268.000   268.000   10.720   10.720   0.000   0.000
0.03375   0.00775   315.323   1137.797   268.000   268.000   10.720   10.720   0.000   0.000
0.03625   0.00775   318.093   1137.797   268.000   268.000   10.720   10.720   0.000   0.000
0.03875   0.00775   320.595   1137.797   268.000   268.000   10.720   10.720   0.000   0.000
0.04125   0.00775   322.870   1137.797   268.000   268.000   10.720   10.720   0.000   0.000
0.04375   0.00775   324.954   1137.797   268.000   268.000   10.720   10.720   0.000   0.000
0.04625   0.00775   326.876   1137.797   268.000   268.000   10.720   10.720   0.000   0.000
0.04875   0.00775   328.643   1137.797   268.000   268.000   10.720   0.000   0.000   16.196
0.00125   0.00725   294.822   1137.797   268.000   268.000   0.000   10.720   0.000   0.000
0.00375   0.00725   294.970   1137.797   268.000   268.000   10.720   10.720   0.000   0.000
0.00625   0.00725   295.271   1137.797   268.000   268.000   10.720   10.720   0.000   0.000
0.00875   0.00725   295.740   1137.797   268.000   268.000   10.720   10.720   0.000   0.000
0.01125   0.00725   296.393   1137.797   268.000   268.000   10.720   10.720   0.000   0.000
0.01375   0.00725   297.257   1137.797   268.000   268.000   10.720   10.720   0.000   0.000
0.01625   0.00725   298.361   1137.797   268.000   268.000   10.720   10.720   0.000   0.000
0.01875   0.00725   299.742   1137.797   268.000   268.000   10.720   10.720   0.000   0.000
0.02125   0.00725   301.441   1137.797   268.000   268.000   10.720   10.720   0.000   0.000
0.02375   0.00725   303.502   1137.797   268.000   268.000   10.720   10.720   0.000   0.000
0.02625   0.00725   305.970   1137.797   268.000   268.000   10.720   10.720   0.000   0.000
0.02875   0.00725   308.876   1137.797   268.000   268.000   10.720   10.720   0.000   0.000
0.03125   0.00725   312.137   1137.797   268.000   268.000   10.720   10.720   0.000   0.000
0.03375   0.00725   315.191   1137.797   268.000   268.000   10.720   10.720   0.000   0.000
0.03625   0.00725   317.955   1137.797   268.000   268.000   10.720   10.720   0.000   0.000
0.03875   0.00725   320.454   1137.797   268.000   268.000   10.720   10.720   0.000   0.000
0.04125   0.00725   322.728   1137.797   268.000   268.000   10.720   10.720   0.000   0.000
0.04375   0.00725   324.811   1137.797   268.000   268.000   10.720   10.720   0.000   0.000
0.04625   0.00725   326.736   1137.797   268.000   268.000   10.720   10.720   0.000   0.000
0.04875   0.00725   328.520   1137.797   268.000   268.000   10.720   0.000   0.000   16.197
0.00125   0.00675   294.818   1137.797   268.000   268.000   0.000   10.720   0.000   0.000
0.00375   0.00675   294.966   1137.797   268.000   268.000   10.720   10.720   0.000   0.000
0.00625   0.00675   295.267   1137.797   268.000   268.000   10.720   10.720   0.000   0.000
0.00875   0.00675   295.735   1137.797   268.000   268.000   10.720   10.720   0.000   0.000
0.01125   0.00675   296.387   1137.797   268.000   268.000   10.720   10.720   0.000   0.000
0.01375   0.00675   297.250   1137.797   268.000   268.000   10.720   10.720   0.000   0.000
0.01625   0.00675   298.353   1137.797   268.000   268.000   10.720   10.720   0.000   0.000
0.01875   0.00675   299.732   1137.797   268.000   268.000   10.720   10.720   0.000   0.000
0.02125   0.00675   301.428   1137.797   268.000   268.000   10.720   10.720   0.000   0.000
0.02375   0.00675   303.486   1137.797   268.000   268.000   10.720   10.720   0.000   0.000
0.02625   0.00675   305.949   1137.797   268.000   268.000   10.720   10.720   0.000   0.000
0.02875   0.00675   308.839   1137.797   268.000   268.000   10.720   10.720   0.000   0.000
0.03125   0.00675   312.053   1137.797   268.000   268.000   10.720   10.720   0.000   0.000
0.03375   0.00675   315.091   1137.797   268.000   268.000   10.720   10.720   0.000   0.000
0.03625   0.00675   317.850   1137.797   268.000   268.000   10.720   10.720   0.000   0.000
0.03875   0.00675   320.346   1137.797   268.000   268.000   10.720   10.720   0.000   0.000
0.04125   0.00675   322.618   1137.797   268.000   268.000   10.720   10.720   0.000   0.000
0.04375   0.00675   324.700   1137.797   268.000   268.000   10.720   10.720   0.000   0.000
0.04625   0.00675   326.628   1137.797   268.000   268.000   10.720   10.720   0.000   0.000
0.04875   0.00675   328.434   1137.797   268.000   268.000   10.720   0.000   0.000   16.197
0.00125   0.00625   294.814   1137.797   268.000   2.085   0.000   10.720   0.000   0.000
0.00375   0.00625   294.961   1137.797   268.000   2.085   10.720   10.720   0.000   0.000
0.00625   0.00625   295.262   1137.797   268.000   2.085   10.720   10.720   0.000   0.000
0.00875   0.00625   295.729   1137.797   268.000   2.085   10.720   10.720   0.000   0.000
0.01125   0.00625   296.380   1137.797   268.000   2.085   10.720   10.720   0.000   0.000
0.01375   0.00625   297.242   1137.797   268.000   2.085   10.720   10.720   0.000   0.000
0.01625   0.00625   298.343   1137.797   268.000   2.085   10.720   10.720   0.000   0.000
0.01875   0.00625   299.719   1137.797   268.000   2.085   10.720   10.720   0.000   0.000
0.02125   0.00625   301.413   1137.797   268.000   2.085   10.720   10.720   0.000   0.000
0.02375   0.00625   303.468   1137.797   268.000   2.085   10.720   10.720   0.000   0.000
0.02625   0.00625   305.927   1137.797   268.000   2.085   10.720   10.720   0.000   0.000
0.02875   0.00625   308.806   1137.797   268.000   2.085   10.720   10.720   0.000   0.000
0.03125   0.00625   311.995   1137.797   268.000   2.085   10.720   10.720   0.000   0.000
0.03375   0.00625   315.023   1137.797   268.000   2.085   10.720   10.720   0.000   0.000
0.03625   0.00625   317.777   1137.797   268.000   2.085   10.720   10.720   0.000   0.000
0.03875   0.00625   320.271   1137.797   268.000   2.085   10.720   10.720   0.000   0.000
0.04125   0.00625   322.540   1137.797   268.000   2.085   10.720   10.720   0.000   0.000
0.04375   0.00625   324.621   1137.797   268.000   2.085   10.720   10.720   0.000   0.000
0.04625   0.00625   326.551   1137.797   268.000   2.085   10.720   10.720   0.000   0.000
0.04875   0.00625   328.386   1137.797   268.000   2.085   10.720   0.000   0.000   16.197
0.00125   0.00575   294.196   686.719   2.085   1.046   0.000   0.042   0.000   0.000
0.00375   0.00575   294.304   686.719   2.085   1.046   0.042   0.042   0.000   0.000
0.00625   0.00575   294.526   686.719   2.085   1.046   0.042   0.042   0.000   0.000
0.00875   0.00575   294.873   686.719   2.085   1.046   0.042   0.042   0.000   0.000
0.01125   0.00575   295.362   686.719   2.085   1.046   0.042   0.042   0.000   0.000
0.01375   0.00575   296.014   686.719   2.085   1.046   0.042   0.042   0.000   0.000
0.01625   0.00575   296.857   686.719   2.085   1.046   0.042   0.042   0.000   0.000
0.01875   0.00575   297.924   686.719   2.085   1.046   0.042   0.042   0.000   0.000
0.02125   0.00575   299.253   686.719   2.085   1.046   0.042   0.042   0.000   0.000
0.02375   0.00575   300.887   686.719   2.085   1.046   0.042   0.042   0.000   0.000
0.02625   0.00575   302.865   686.719   2.085   1.046   0.042   0.042   0.000   0.000
0.02875   0.00575   305.205   686.719   2.085   1.046   0.042   0.042   0.000   0.000
0.03125   0.00575   307.815   686.719   2.085   1.046   0.042   0.042   0.000   0.000
0.03375   0.00575   310.307   686.719   2.085   1.046   0.042   0.042   0.000   0.000
0.03625   0.00575   312.588   686.719   2.085   1.046   0.042   0.042   0.000   0.000
0.03875   0.00575   314.676   686.719   2.085   1.046   0.042   0.042   0.000   0.000
0.04125   0.00575   316.608   686.719   2.085   1.046   0.042   0.042   0.000   0.000
0.04375   0.00575   318.437   686.719   2.085   1.046   0.042   0.042   0.000   0.000
0.04625   0.00575   320.426   686.719   2.085   1.046   0.042   0.042   0.000   0.000
0.04875   0.00575   327.243   686.719   2.085   1.046   0.042   0.000   0.000   6.075
0.00125   0.00525   293.566   686.719   1.046   1.046   0.000   0.042   0.000   0.000
0.00375   0.00525   293.626   686.719   1.046   1.046   0.042   0.042   0.000   0.000
0.00625   0.00525   293.749   686.719   1.046   1.046   0.042   0.042   0.000   0.000
0.00875   0.00525   293.945   686.719   1.046   1.046   0.042   0.042   0.000   0.000
0.01125   0.00525   294.225   686.719   1.046   1.046   0.042   0.042   0.000   0.000
0.01375   0.00525   294.605   686.719   1.046   1.046   0.042   0.042   0.000   0.000
0.01625   0.00525   295.105   686.719   1.046   1.046   0.042   0.042   0.000   0.000
0.01875   0.00525   295.752   686.719   1.046   1.046   0.042   0.042   0.000   0.000
0.02125   0.00525   296.574   686.719   1.046   1.046   0.042   0.042   0.000   0.000
0.02375   0.00525   297.606   686.719   1.046   1.046   0.042   0.042   0.000   0.000
0.02625   0.00525   298.881   686.719   1.046   1.046   0.042   0.042   0.000   0.000
0.02875   0.00525   300.416   686.719   1.046   1.046   0.042   0.042   0.000   0.000
0.03125   0.00525   302.152   686.719   1.046   1.046   0.042   0.042   0.000   0.000
0.03375   0.00525   303.841   686.719   1.046   1.046   0.042   0.042   0.000   0.000
0.03625   0.00525   305.425   686.719   1.046   1.046   0.042   0.042   0.000   0.000
0.03875   0.00525   306.923   686.719   1.046   1.046   0.042   0.042   0.000   0.000
0.04125   0.00525   308.377   686.719   1.046   1.046   0.042   0.042   0.000   0.000
0.04375   0.00525   309.851   686.719   1.046   1.046   0.042   0.042   0.000   0.000
0.04625   0.00525   311.901   686.719   1.046   1.046   0.042   0.042   0.000   0.000
0.04875   0.00525   323.419   686.719   1.046   1.046   0.042   0.000   0.000   6.080
0.00125   0.00475   293.272   686.719   1.046   1.046   0.000   0.042   0.000   0.000
0.00375   0.00475   293.305   686.719   1.046   1.046   0.042   0.042   0.000   0.000
0.00625   0.00475   293.374   686.719   1.046   1.046   0.042   0.042   0.000   0.000
0.00875   0.00475   293.484   686.719   1.046   1.046   0.042   0.042   0.000   0.000
0.01125   0.00475   293.643   686.719   1.046   1.046   0.042   0.042   0.000   0.000
0.01375   0.00475   293.862   686.719   1.046   1.046   0.042   0.042   0.000   0.000
0.01625   0.00475   294.155   686.719   1.046   1.046   0.042   0.042   0.000   0.000
0.01875   0.00475   294.541   686.719   1.046   1.046   0.042   0.042   0.000   0.000
0.02125   0.00475   295.039   686.719   1.046   1.046   0.042   0.042   0.000   0.000
0.02375   0.00475   295.674   686.719   1.046   1.046   0.042   0.042   0.000   0.000
0.02625   0.00475   296.471   686.719   1.046   1.046   0.042   0.042   0.000   0.000
0.02875   0.00475   297.445   686.719   1.046   1.046   0.042   0.042   0.000   0.000
0.03125   0.00475   298.568   686.719   1.046   1.046   0.042   0.042   0.000   0.000
0.03375   0.00475   299.705   686.719   1.046   1.046   0.042   0.042   0.000   0.000
0.03625   0.00475   300.829   686.719   1.046   1.046   0.042   0.042   0.000   0.000
0.03875   0.00475   301.960   686.719   1.046   1.046   0.042   0.042   0.000   0.000
0.04125   0.00475   303.131   686.719   1.046   1.046   0.042   0.042   0.000   0.000
0.04375   0.00475   304.399   686.719   1.046   1.046   0.042   0.042   0.000   0.000
0.04625   0.00475   306.316   686.719   1.046   1.046   0.042   0.042   0.000   0.000
0.04875   0.00475   317.774   686.719   1.046   1.046   0.042   0.000   0.000   6.086
0.00125   0.00425   293.168   686.719   1.046   2.085   0.000   0.042   0.000   0.000
0.00375   0.00425   293.189   686.719   1.046   2.085   0.042   0.042   0.000   0.000
0.00625   0.00425   293.232   686.719   1.046   2.085   0.042   0.042   0.000   0.000
0.00875   0.00425   293.301   686.719   1.046   2.085   0.042   0.042   0.000   0.000
0.01125   0.00425   293.401   686.719   1.046   2.085   0.042   0.042   0.000   0.000
0.01375   0.00425   293.539   686.719   1.046   2.085   0.042   0.042   0.000   0.000
0.01625   0.00425   293.723   686.719   1.046   2.085   0.042   0.042   0.000   0.000
0.01875   0.00425   293.964   686.719   1.046   2.085   0.042   0.042   0.000   0.000
0.02125   0.00425   294.275   686.719   1.046   2.085   0.042   0.042   0.000   0.000
0.02375   0.00425   294.670   686.719   1.046   2.085   0.042   0.042   0.000   0.000
0.02625   0.00425   295.164   686.719   1.046   2.085   0.042   0.042   0.000   0.000
0.02875   0.00425   295.769   686.719   1.046   2.085   0.042   0.042   0.000   0.000
0.03125   0.00425   296.484   686.719   1.046   2.085   0.042   0.042   0.000   0.000
0.03375   0.00425   297.271   686.719   1.046   2.085   0.042   0.042   0.000   0.000
0.03625   0.00425   298.130   686.719   1.046   2.085   0.042   0.042   0.000   0.000
0.03875   0.00425   299.075   686.719   1.046   2.085   0.042   0.042   0.000   0.000
0.04125   0.00425   300.126   686.719   1.046   2.085   0.042   0.042   0.000   0.000
0.04375   0.00425   301.314   686.719   1.046   2.085   0.042   0.042   0.000   0.000
0.04625   0.00425   302.887   686.719   1.046   2.085   0.042   0.042   0.000   0.000
0.04875   0.00425   309.508   686.719   1.046   2.085   0.042   0.000   0.000   6.095
0.00125   0.00375   293.177   1137.797   2.085   268.000   0.000   10.720   0.000   0.000
0.00375   0.00375   293.197   1137.797   2.085   268.000   10.720   10.720   0.000   0.000
0.00625   0.00375   293.237   1137.797   2.085   268.000   10.720   10.720   0.000   0.000
0.00875   0.00375   293.301   1137.797   2.085   268.000   10.720   10.720   0.000   0.000
0.01125   0.00375   293.392   1137.797   2.085   268.000   10.720   10.720   0.000   0.000
0.01375   0.00375   293.515   1137.797   2.085   268.000   10.720   10.720   0.000   0.000
0.01625   0.00375   293.676   1137.797   2.085   268.000   10.720   10.720   0.000   0.000
0.01875   0.00375   293.884   1137.797   2.085   268.000   10.720   10.720   0.000   0.000
0.02125   0.00375   294.145   1137.797   2.085   268.000   10.720   10.720   0.000   0.000
0.02375   0.00375   294.469   1137.797   2.085   268.000   10.720   10.720   0.000   0.000
0.02625   0.00375   294.867   1137.797   2.085   268.000   10.720   10.720   0.000   0.000
0.02875   0.00375   295.348   1137.797   2.085   268.000   10.720   10.720   0.000   0.000
0.03125   0.00375   295.921   1137.797   2.085   268.000   10.720   10.720   0.000   0.000
0.03375   0.00375   296.596   1137.797   2.085   268.000   10.720   10.720   0.000   0.000
0.03625   0.00375   297.383   1137.797   2.085   268.000   10.720   10.720   0.000   0.000
0.03875   0.00375   298.292   1137.797   2.085   268.000   10.720   10.720   0.000   0.000
0.04125   0.00375   299.335   1137.797   2.085   268.000   10.720   10.720   0.000   0.000
0.04375   0.00375   300.521   1137.797   2.085   268.000   10.720   10.720   0.000   0.000
0.04625   0.00375   301.869   1137.797   2.085   268.000   10.720   10.720   0.000   0.000
0.04875   0.00375   303.420   1137.797   2.085   268.000   10.720   0.000   0.000   16.269
0.00125   0.00325   293.177   1137.797   268.000   268.000   0.000   10.720   0.000   0.000
0.00375   0.00325   293.197   1137.797   268.000   268.000   10.720   10.720   0.000   0.000
0.00625   0.00325   293.237   1137.797   268.000   268.000   10.720   10.720   0.000   0.000
0.00875   0.00325   293.301   1137.797   268.000   268.000   10.720   10.720   0.000   0.000
0.01125   0.00325   293.392   1137.797   268.000   268.000   10.720   10.720   0.000   0.000
0.01375   0.00325   293.515   1137.797   268.000   268.000   10.720   10.720   0.000   0.000
0.01625   0.00325   293.676   1137.797   268.000   268.000   10.720   10.720   0.000   0.000
0.01875   0.00325   293.883   1137.797   268.000   268.000   10.720   10.720   0.000   0.000
0.02125   0.00325   294.144   1137.797   268.000   268.000   10.720   10.720   0.000   0.000
0.02375   0.00325   294.468   1137.797   268.000   268.000   10.720   10.720   0.000   0.000
0.02625   0.00325   294.865   1137.797   268.000   268.000   10.720   10.720   0.000   0.000
0.02875   0.00325   295.345   1137.797   268.000   268.000   10.720   10.720   0.000   0.000
0.03125   0.00325   295.918   1137.797   268.000   268.000   10.720   10.720   0.000   0.000
0.03375   0.00325   296.592   1137.797   268.000   268.000   10.720   10.720   0.000   0.000
0.03625   0.00325   297.378   1137.797   268.000   268.000   10.720   10.720   0.000   0.000
0.03875   0.00325   298.287   1137.797   268.000   268.000   10.720   10.720   0.000   0.000
0.04125   0.00325   299.329   1137.797   268.000   268.000   10.720   10.720   0.000   0.000
0.04375   0.00325   300.516   1137.797   268.000   268.000   10.720   10.720   0.000   0.000
0.04625   0.00325   301.860   1137.797   268.000   268.000   10.720   10.720   0.000   0.000
0.04875   0.00325   303.381   1137.797   268.000   268.000   10.720   0.000   0.000   16.269
0.00125   0.00275   293.177   1137.797   268.000   268.000   0.000   10.720   0.000   0.000
0.00375   0.00275   293.197   1137.797   268.000   268.000   10.720   10.720   0.000   0.000
0.00625   0.00275   293.237   1137.797   268.000   268.000   10.720   10.720   0.000   0.000
0.00875   0.00275   293.301   1137.797   268.000   268.000   10.720   10.720   0.000   0.000
0.01125   0.00275   293.392   1137.797   268.000   268.000   10.720   10.720   0.000   0.000
0.01375   0.00275   293.515   1137.797   268.000   268.000   10.720   10.720   0.000   0.000
0.01625   0.00275   293.676   1137.797   268.000   268.000   10.720   10.720   0.000   0.000
0.01875   0.00275   293.883   1137.797   268.000   268.000   10.720   10.720   0.000   0.000
0.02125   0.00275   294.143   1137.797   268.000   268.000   10.720   10.720   0.000   0.000
0.02375   0.00275   294.467   1137.797   268.000   268.000   10.720   10.720   0.000   0.000
0.02625   0.00275   294.863   1137.797   268.000   268.000   10.720   10.720   0.000   0.000
0.02875   0.00275   295.343   1137.797   268.000   268.000   10.720   10.720   0.000   0.000
0.03125   0.00275   295.914   1137.797   268.000   268.000   10.720   10.720   0.000   0.000
0.03375   0.00275   296.588   1137.797   268.000   268.000   10.720   10.720   0.000   0.000
0.03625   0.00275   297.374   1137.797   268.000   268.000   10.720   10.720   0.000   0.000
0.03875   0.00275   298.283   1137.797   268.000   268.000   10.720   10.720   0.000   0.000
0.04125   0.00275   299.325   1137.797   268.000   268.000   10.720   10.720   0.000   0.000
0.04375   0.00275   300.511   1137.797   268.000   268.000   10.720   10.720   0.000   0.000
0.04625   0.00275   301.851   1137.797   268.000   268.000   10.720   10.720   0.000   0.000
0.04875   0.00275   303.349   1137.797   268.000   268.000   10.720   0.000   0.000   16.269
0.00125   0.00225   293.177   1137.797   268.000   268.000   0.000   10.720   0.000   0.000
0.00375   0.00225   293.197   1137.797   268.000   268.000   10.720   10.720   0.000   0.000
0.00625   0.00225   293.237   1137.797   268.000   268.000   10.720   10.720   0.000   0.000
0.00875   0.00225   293.301   1137.797   268.000   268.000   10.720   10.720   0.000   0.000
0.01125   0.00225   293.392   1137.797   268.000   268.000   10.720   10.720   0.000   0.000
0.01375   0.00225   293.515   1137.797   268.000   268.000   10.720   10.720   0.000   0.000
0.01625   0.00225   293.676   1137.797   268.000   268.000   10.720   10.720   0.000   0.000
0.01875   0.00225   293.882   1137.797   268.000   268.000   10.720   10.720   0.000   0.000
0.02125   0.00225   294.143   1137.797   268.000   268.000   10.720   10.720   0.000   0.000
0.02375   0.00225   294.466   1137.797   268.000   268.000   10.720   10.720   0.000   0.000
0.02625   0.00225   294.862   1137.797   268.000   268.000   10.720   10.720   0.000   0.000
0.02875   0.00225   295.341   1137.797   268.000   268.000   10.720   10.720   0.000   0.000
0.03125   0.00225   295.912   1137.797   268.000   268.000   10.720   10.720   0.000   0.000
0.03375   0.00225   296.585   1137.797   268.000   268.000   10.720   10.720   0.000   0.000
0.03625   0.00225   297.370   1137.797   268.000   268.000   10.720   10.720   0.000   0.000
0.03875   0.00225   298.279   1137.797   268.000   268.000   10.720   10.720   0.000   0.000
0.04125   0.00225   299.321   1137.797   268.000   268.000   10.720   10.720   0.000   0.000
0.04375   0.00225   300.506   1137.797   268.000   268.000   10.720   10.720   0.000   0.000
0.04625   0.00225   301.842   1137.797   268.000   268.000   10.720   10.720   0.000   0.000
0.04875   0.00225   303.324   1137.797   268.000   268.000   10.720   0.000   0.000   16.269
0.00125   0.00175   293.177   1137.797   268.000   268.000   0.000   10.720   0.000   0.000
0.00375   0.00175   293.197   1137.797   268.000   268.000   10.720   10.720   0.000   0.000
0.00625   0.00175   293.237   1137.797   268.000   268.000   10.720   10.720   0.000   0.000
0.00875   0.00175   293.301   1137.797   268.000   268.000   10.720   10.720   0.000   0.000
0.01125   0.00175   293.392   1137.797   268.000   268.000   10.720   10.720   0.000   0.000
0.01375   0.00175   293.515   1137.797   268.000   268.000   10.720   10.720   0.000   0.000
0.01625   0.00175   293.675   1137.797   268.000   268.000   10.720   10.720   0.000   0.000
0.01875   0.00175   293.882   1137.797   268.000   268.000   10.720   10.720   0.000   0.000
0.02125   0.00175   294.142   1137.797   268.000   268.000   10.720   10.720   0.000   0.000