VARIABLES = X, Y, T, ap,an,as,aw,ae,sp,su
ZONE I=20,J=20, F=POINT,t="27.352"
0.00125   0.00975   299.825   1137.797   0.000   268.000   0.000   10.720   0.000   -0.005
0.00375   0.00975   300.089   1137.797   0.000   268.000   10.720   10.720   0.000   -0.005
0.00625   0.00975   300.621   1137.797   0.000   268.000   10.720   10.720   0.000   -0.006
0.00875   0.00975   301.430   1137.797   0.000   268.000   10.720   10.720   0.000   -0.006
0.01125   0.00975   302.529   1137.797   0.000   268.000   10.720   10.720   0.000   -0.007
0.01375   0.00975   303.934   1137.797   0.000   268.000   10.720   10.720   0.000   -0.008
0.01625   0.00975   305.664   1137.797   0.000   268.000   10.720   10.720   0.000   -0.009
0.01875   0.00975   307.745   1137.797   0.000   268.000   10.720   10.720   0.000   -0.011
0.02125   0.00975   310.201   1137.797   0.000   268.000   10.720   10.720   0.000   -0.013
0.02375   0.00975   313.063   1137.797   0.000   268.000   10.720   10.720   0.000   -0.015
0.02625   0.00975   316.370   1137.797   0.000   268.000   10.720   10.720   0.000   -0.018
0.02875   0.00975   320.201   1137.797   0.000   268.000   10.720   10.720   0.000   -0.020
0.03125   0.00975   324.968   1137.797   0.000   268.000   10.720   10.720   0.000   81.015
0.03375   0.00975   328.888   1137.797   0.000   268.000   10.720   10.720   0.000   80.950
0.03625   0.00975   332.374   1137.797   0.000   268.000   10.720   10.720   0.000   80.890
0.03875   0.00975   335.499   1137.797   0.000   268.000   10.720   10.720   0.000   80.835
0.04125   0.00975   338.295   1137.797   0.000   268.000   10.720   10.720   0.000   80.785
0.04375   0.00975   340.784   1137.797   0.000   268.000   10.720   10.720   0.000   80.739
0.04625   0.00975   342.974   1137.797   0.000   268.000   10.720   10.720   0.000   80.697
0.04875   0.00975   344.853   1137.797   0.000   268.000   10.720   0.000   0.000   96.801
0.00125   0.00925   299.823   1137.797   268.000   268.000   0.000   10.720   0.000   0.000
0.00375   0.00925   300.087   1137.797   268.000   268.000   10.720   10.720   0.000   0.000
0.00625   0.00925   300.619   1137.797   268.000   268.000   10.720   10.720   0.000   0.000
0.00875   0.00925   301.429   1137.797   268.000   268.000   10.720   10.720   0.000   0.000
0.01125   0.00925   302.527   1137.797   268.000   268.000   10.720   10.720   0.000   0.000
0.01375   0.00925   303.931   1137.797   268.000   268.000   10.720   10.720   0.000   0.000
0.01625   0.00925   305.662   1137.797   268.000   268.000   10.720   10.720   0.000   0.000
0.01875   0.00925   307.742   1137.797   268.000   268.000   10.720   10.720   0.000   0.000
0.02125   0.00925   310.198   1137.797   268.000   268.000   10.720   10.720   0.000   0.000
0.02375   0.00925   313.060   1137.797   268.000   268.000   10.720   10.720   0.000   0.000
0.02625   0.00925   316.364   1137.797   268.000   268.000   10.720   10.720   0.000   0.000
0.02875   0.00925   320.180   1137.797   268.000   268.000   10.720   10.720   0.000   0.000
0.03125   0.00925   324.716   1137.797   268.000   268.000   10.720   10.720   0.000   0.000
0.03375   0.00925   328.621   1137.797   268.000   268.000   10.720   10.720   0.000   0.000
0.03625   0.00925   332.104   1137.797   268.000   268.000   10.720   10.720   0.000   0.000
0.03875   0.00925   335.229   1137.797   268.000   268.000   10.720   10.720   0.000   0.000
0.04125   0.00925   338.025   1137.797   268.000   268.000   10.720   10.720   0.000   0.000
0.04375   0.00925   340.514   1137.797   268.000   268.000   10.720   10.720   0.000   0.000
0.04625   0.00925   342.705   1137.797   268.000   268.000   10.720   10.720   0.000   0.000
0.04875   0.00925   344.587   1137.797   268.000   268.000   10.720   0.000   0.000   16.141
0.00125   0.00875   299.820   1137.797   268.000   268.000   0.000   10.720   0.000   0.000
0.00375   0.00875   300.084   1137.797   268.000   268.000   10.720   10.720   0.000   0.000
0.00625   0.00875   300.616   1137.797   268.000   268.000   10.720   10.720   0.000   0.000
0.00875   0.00875   301.425   1137.797   268.000   268.000   10.720   10.720   0.000   0.000
0.01125   0.00875   302.523   1137.797   268.000   268.000   10.720   10.720   0.000   0.000
0.01375   0.00875   303.927   1137.797   268.000   268.000   10.720   10.720   0.000   0.000
0.01625   0.00875   305.657   1137.797   268.000   268.000   10.720   10.720   0.000   0.000
0.01875   0.00875   307.736   1137.797   268.000   268.000   10.720   10.720   0.000   0.000
0.02125   0.00875   310.191   1137.797   268.000   268.000   10.720   10.720   0.000   0.000
0.02375   0.00875   313.052   1137.797   268.000   268.000   10.720   10.720   0.000   0.000
0.02625   0.00875   316.353   1137.797   268.000   268.000   10.720   10.720   0.000   0.000
0.02875   0.00875   320.145   1137.797   268.000   268.000   10.720   10.720   0.000   0.000
0.03125   0.00875   324.505   1137.797   268.000   268.000   10.720   10.720   0.000   0.000
0.03375   0.00875   328.388   1137.797   268.000   268.000   10.720   10.720   0.000   0.000
0.03625   0.00875   331.867   1137.797   268.000   268.000   10.720   10.720   0.000   0.000
0.03875   0.00875   334.990   1137.797   268.000   268.000   10.720   10.720   0.000   0.000
0.04125   0.00875   337.786   1137.797   268.000   268.000   10.720   10.720   0.000   0.000
0.04375   0.00875   340.275   1137.797   268.000   268.000   10.720   10.720   0.000   0.000
0.04625   0.00875   342.469   1137.797   268.000   268.000   10.720   10.720   0.000   0.000
0.04875   0.00875   344.355   1137.797   268.000   268.000   10.720   0.000   0.000   16.142
0.00125   0.00825   299.815   1137.797   268.000   268.000   0.000   10.720   0.000   0.000
0.00375   0.00825   300.079   1137.797   268.000   268.000   10.720   10.720   0.000   0.000
0.00625   0.00825   300.611   1137.797   268.000   268.000   10.720   10.720   0.000   0.000
0.00875   0.00825   301.420   1137.797   268.000   268.000   10.720   10.720   0.000   0.000
0.01125   0.00825   302.517   1137.797   268.000   268.000   10.720   10.720   0.000   0.000
0.01375   0.00825   303.921   1137.797   268.000   268.000   10.720   10.720   0.000   0.000
0.01625   0.00825   305.650   1137.797   268.000   268.000   10.720   10.720   0.000   0.000
0.01875   0.00825   307.728   1137.797   268.000   268.000   10.720   10.720   0.000   0.000
0.02125   0.00825   310.182   1137.797   268.000   268.000   10.720   10.720   0.000   0.000
0.02375   0.00825   313.041   1137.797   268.000   268.000   10.720   10.720   0.000   0.000
0.02625   0.00825   316.336   1137.797   268.000   268.000   10.720   10.720   0.000   0.000
0.02875   0.00825   320.103   1137.797   268.000   268.000   10.720   10.720   0.000   0.000
0.03125   0.00825   324.331   1137.797   268.000   268.000   10.720   10.720   0.000   0.000
0.03375   0.00825   328.188   1137.797   268.000   268.000   10.720   10.720   0.000   0.000
0.03625   0.00825   331.662   1137.797   268.000   268.000   10.720   10.720   0.000   0.000
0.03875   0.00825   334.784   1137.797   268.000   268.000   10.720   10.720   0.000   0.000
0.04125   0.00825   337.579   1137.797   268.000   268.000   10.720   10.720   0.000   0.000
0.04375   0.00825   340.068   1137.797   268.000   268.000   10.720   10.720   0.000   0.000
0.04625   0.00825   342.264   1137.797   268.000   268.000   10.720   10.720   0.000   0.000
0.04875   0.00825   344.159   1137.797   268.000   268.000   10.720   0.000   0.000   16.143
0.00125   0.00775   299.809   1137.797   268.000   268.000   0.000   10.720   0.000   0.000
0.00375   0.00775   300.073   1137.797   268.000   268.000   10.720   10.720   0.000   0.000
0.00625   0.00775   300.604   1137.797   268.000   268.000   10.720   10.720   0.000   0.000
0.00875   0.00775   301.412   1137.797   268.000   268.000   10.720   10.720   0.000   0.000
0.01125   0.00775   302.509   1137.797   268.000   268.000   10.720   10.720   0.000   0.000
0.01375   0.00775   303.912   1137.797   268.000   268.000   10.720   10.720   0.000   0.000
0.01625   0.00775   305.640   1137.797   268.000   268.000   10.720   10.720   0.000   0.000
0.01875   0.00775   307.717   1137.797   268.000   268.000   10.720   10.720   0.000   0.000
0.02125   0.00775   310.169   1137.797   268.000   268.000   10.720   10.720   0.000   0.000
0.02375   0.00775   313.026   1137.797   268.000   268.000   10.720   10.720   0.000   0.000
0.02625   0.00775   316.315   1137.797   268.000   268.000   10.720   10.720   0.000   0.000
0.02875   0.00775   320.058   1137.797   268.000   268.000   10.720   10.720   0.000   0.000
0.03125   0.00775   324.187   1137.797   268.000   268.000   10.720   10.720   0.000   0.000
0.03375   0.00775   328.020   1137.797   268.000   268.000   10.720   10.720   0.000   0.000
0.03625   0.00775   331.489   1137.797   268.000   268.000   10.720   10.720   0.000   0.000
0.03875   0.00775   334.608   1137.797   268.000   268.000   10.720   10.720   0.000   0.000
0.04125   0.00775   337.403   1137.797   268.000   268.000   10.720   10.720   0.000   0.000
0.04375   0.00775   339.892   1137.797   268.000   268.000   10.720   10.720   0.000   0.000
0.04625   0.00775   342.091   1137.797   268.000   268.000   10.720   10.720   0.000   0.000
0.04875   0.00775   343.998   1137.797   268.000   268.000   10.720   0.000   0.000   16.143
0.00125   0.00725   299.801   1137.797   268.000   268.000   0.000   10.720   0.000   0.000
0.00375   0.00725   300.065   1137.797   268.000   268.000   10.720   10.720   0.000   0.000
0.00625   0.00725   300.596   1137.797   268.000   268.000   10.720   10.720   0.000   0.000
0.00875   0.00725   301.403   1137.797   268.000   268.000   10.720   10.720   0.000   0.000
0.01125   0.00725   302.499   1137.797   268.000   268.000   10.720   10.720   0.000   0.000
0.01375   0.00725   303.901   1137.797   268.000   268.000   10.720   10.720   0.000   0.000
0.01625   0.00725   305.628   1137.797   268.000   268.000   10.720   10.720   0.000   0.000
0.01875   0.00725   307.703   1137.797   268.000   268.000   10.720   10.720   0.000   0.000
0.02125   0.00725   310.154   1137.797   268.000   268.000   10.720   10.720   0.000   0.000
0.02375   0.00725   313.007   1137.797   268.000   268.000   10.720   10.720   0.000   0.000
0.02625   0.00725   316.291   1137.797   268.000   268.000   10.720   10.720   0.000   0.000
0.02875   0.00725   320.013   1137.797   268.000   268.000   10.720   10.720   0.000   0.000
0.03125   0.00725   324.072   1137.797   268.000   268.000   10.720   10.720   0.000   0.000
0.03375   0.00725   327.884   1137.797   268.000   268.000   10.720   10.720   0.000   0.000
0.03625   0.00725   331.347   1137.797   268.000   268.000   10.720   10.720   0.000   0.000
0.03875   0.00725   334.465   1137.797   268.000   268.000   10.720   10.720   0.000   0.000
0.04125   0.00725   337.258   1137.797   268.000   268.000   10.720   10.720   0.000   0.000
0.04375   0.00725   339.747   1137.797   268.000   268.000   10.720   10.720   0.000   0.000
0.04625   0.00725   341.949   1137.797   268.000   268.000   10.720   10.720   0.000   0.000
0.04875   0.00725   343.873   1137.797   268.000   268.000   10.720   0.000   0.000   16.144
0.00125   0.00675   299.792   1137.797   268.000   268.000   0.000   10.720   0.000   0.000
0.00375   0.00675   300.055   1137.797   268.000   268.000   10.720   10.720   0.000   0.000
0.00625   0.00675   300.586   1137.797   268.000   268.000   10.720   10.720   0.000   0.000
0.00875   0.00675   301.392   1137.797   268.000   268.000   10.720   10.720   0.000   0.000
0.01125   0.00675   302.487   1137.797   268.000   268.000   10.720   10.720   0.000   0.000
0.01375   0.00675   303.888   1137.797   268.000   268.000   10.720   10.720   0.000   0.000
0.01625   0.00675   305.613   1137.797   268.000   268.000   10.720   10.720   0.000   0.000
0.01875   0.00675   307.687   1137.797   268.000   268.000   10.720   10.720   0.000   0.000
0.02125   0.00675   310.135   1137.797   268.000   268.000   10.720   10.720   0.000   0.000
0.02375   0.00675   312.986   1137.797   268.000   268.000   10.720   10.720   0.000   0.000
0.02625   0.00675   316.264   1137.797   268.000   268.000   10.720   10.720   0.000   0.000
0.02875   0.00675   319.970   1137.797   268.000   268.000   10.720   10.720   0.000   0.000
0.03125   0.00675   323.983   1137.797   268.000   268.000   10.720   10.720   0.000   0.000
0.03375   0.00675   327.780   1137.797   268.000   268.000   10.720   10.720   0.000   0.000
0.03625   0.00675   331.238   1137.797   268.000   268.000   10.720   10.720   0.000   0.000
0.03875   0.00675   334.353   1137.797   268.000   268.000   10.720   10.720   0.000   0.000
0.04125   0.00675   337.144   1137.797   268.000   268.000   10.720   10.720   0.000   0.000
0.04375   0.00675   339.633   1137.797   268.000   268.000   10.720   10.720   0.000   0.000
0.04625   0.00675   341.838   1137.797   268.000   268.000   10.720   10.720   0.000   0.000
0.04875   0.00675   343.785   1137.797   268.000   268.000   10.720   0.000   0.000   16.144
0.00125   0.00625   299.781   1137.797   268.000   2.085   0.000   10.720   0.000   0.000
0.00375   0.00625   300.044   1137.797   268.000   2.085   10.720   10.720   0.000   0.000
0.00625   0.00625   300.574   1137.797   268.000   2.085   10.720   10.720   0.000   0.000
0.00875   0.00625   301.380   1137.797   268.000   2.085   10.720   10.720   0.000   0.000
0.01125   0.00625   302.474   1137.797   268.000   2.085   10.720   10.720   0.000   0.000
0.01375   0.00625   303.872   1137.797   268.000   2.085   10.720   10.720   0.000   0.000
0.01625   0.00625   305.596   1137.797   268.000   2.085   10.720   10.720   0.000   0.000
0.01875   0.00625   307.667   1137.797   268.000   2.085   10.720   10.720   0.000   0.000
0.02125   0.00625   310.113   1137.797   268.000   2.085   10.720   10.720   0.000   0.000
0.02375   0.00625   312.961   1137.797   268.000   2.085   10.720   10.720   0.000   0.000
0.02625   0.00625   316.234   1137.797   268.000   2.085   10.720   10.720   0.000   0.000
0.02875   0.00625   319.931   1137.797   268.000   2.085   10.720   10.720   0.000   0.000
0.03125   0.00625   323.919   1137.797   268.000   2.085   10.720   10.720   0.000   0.000
0.03375   0.00625   327.706   1137.797   268.000   2.085   10.720   10.720   0.000   0.000
0.03625   0.00625   331.159   1137.797   268.000   2.085   10.720   10.720   0.000   0.000
0.03875   0.00625   334.272   1137.797   268.000   2.085   10.720   10.720   0.000   0.000
0.04125   0.00625   337.062   1137.797   268.000   2.085   10.720   10.720   0.000   0.000
0.04375   0.00625   339.549   1137.797   268.000   2.085   10.720   10.720   0.000   0.000
0.04625   0.00625   341.757   1137.797   268.000   2.085   10.720   10.720   0.000   0.000
0.04875   0.00625   343.734   1137.797   268.000   2.085   10.720   0.000   0.000   16.144
0.00125   0.00575   298.185   686.719   2.085   1.046   0.000   0.042   0.000   0.000
0.00375   0.00575   298.404   686.719   2.085   1.046   0.042   0.042   0.000   0.000
0.00625   0.00575   298.846   686.719   2.085   1.046   0.042   0.042   0.000   0.000
0.00875   0.00575   299.520   686.719   2.085   1.046   0.042   0.042   0.000   0.000
0.01125   0.00575   300.437   686.719   2.085   1.046   0.042   0.042   0.000   0.000
0.01375   0.00575   301.615   686.719   2.085   1.046   0.042   0.042   0.000   0.000
0.01625   0.00575   303.071   686.719   2.085   1.046   0.042   0.042   0.000   0.000
0.01875   0.00575   304.830   686.719   2.085   1.046   0.042   0.042   0.000   0.000
0.02125   0.00575   306.916   686.719   2.085   1.046   0.042   0.042   0.000   0.000
0.02375   0.00575   309.358   686.719   2.085   1.046   0.042   0.042   0.000   0.000
0.02625   0.00575   312.178   686.719   2.085   1.046   0.042   0.042   0.000   0.000
0.02875   0.00575   315.374   686.719   2.085   1.046   0.042   0.042   0.000   0.000
0.03125   0.00575   318.831   686.719   2.085   1.046   0.042   0.042   0.000   0.000
0.03375   0.00575   322.139   686.719   2.085   1.046   0.042   0.042   0.000   0.000
0.03625   0.00575   325.179   686.719   2.085   1.046   0.042   0.042   0.000   0.000
0.03875   0.00575   327.945   686.719   2.085   1.046   0.042   0.042   0.000   0.000
0.04125   0.00575   330.459   686.719   2.085   1.046   0.042   0.042   0.000   0.000
0.04375   0.00575   332.753   686.719   2.085   1.046   0.042   0.042   0.000   0.000
0.04625   0.00575   335.092   686.719   2.085   1.046   0.042   0.042   0.000   0.000
0.04875   0.00575   342.150   686.719   2.085   1.046   0.042   0.000   0.000   6.056
0.00125   0.00525   296.163   686.719   1.046   1.046   0.000   0.042   0.000   0.000
0.00375   0.00525   296.315   686.719   1.046   1.046   0.042   0.042   0.000   0.000
0.00625   0.00525   296.622   686.719   1.046   1.046   0.042   0.042   0.000   0.000
0.00875   0.00525   297.091   686.719   1.046   1.046   0.042   0.042   0.000   0.000
0.01125   0.00525   297.733   686.719   1.046   1.046   0.042   0.042   0.000   0.000
0.01375   0.00525   298.561   686.719   1.046   1.046   0.042   0.042   0.000   0.000
0.01625   0.00525   299.592   686.719   1.046   1.046   0.042   0.042   0.000   0.000
0.01875   0.00525   300.847   686.719   1.046   1.046   0.042   0.042   0.000   0.000
0.02125   0.00525   302.345   686.719   1.046   1.046   0.042   0.042   0.000   0.000
0.02375   0.00525   304.112   686.719   1.046   1.046   0.042   0.042   0.000   0.000
0.02625   0.00525   306.168   686.719   1.046   1.046   0.042   0.042   0.000   0.000
0.02875   0.00525   308.513   686.719   1.046   1.046   0.042   0.042   0.000   0.000
0.03125   0.00525   311.064   686.719   1.046   1.046   0.042   0.042   0.000   0.000
0.03375   0.00525   313.549   686.719   1.046   1.046   0.042   0.042   0.000   0.000
0.03625   0.00525   315.883   686.719   1.046   1.046   0.042   0.042   0.000   0.000
0.03875   0.00525   318.066   686.719   1.046   1.046   0.042   0.042   0.000   0.000
0.04125   0.00525   320.115   686.719   1.046   1.046   0.042   0.042   0.000   0.000
0.04375   0.00525   322.083   686.719   1.046   1.046   0.042   0.042   0.000   0.000
0.04625   0.00525   324.545   686.719   1.046   1.046   0.042   0.042   0.000   0.000
0.04875   0.00525   336.433   686.719   1.046   1.046   0.042   0.000   0.000   6.064
0.00125   0.00475   294.961   686.719   1.046   1.046   0.000   0.042   0.000   0.000
0.00375   0.00475   295.064   686.719   1.046   1.046   0.042   0.042   0.000   0.000
0.00625   0.00475   295.271   686.719   1.046   1.046   0.042   0.042   0.000   0.000
0.00875   0.00475   295.589   686.719   1.046   1.046   0.042   0.042   0.000   0.000
0.01125   0.00475   296.025   686.719   1.046   1.046   0.042   0.042   0.000   0.000
0.01375   0.00475   296.589   686.719   1.046   1.046   0.042   0.042   0.000   0.000
0.01625   0.00475   297.294   686.719   1.046   1.046   0.042   0.042   0.000   0.000
0.01875   0.00475   298.155   686.719   1.046   1.046   0.042   0.042   0.000   0.000
0.02125   0.00475   299.187   686.719   1.046   1.046   0.042   0.042   0.000   0.000
0.02375   0.00475   300.408   686.719   1.046   1.046   0.042   0.042   0.000   0.000
0.02625   0.00475   301.833   686.719   1.046   1.046   0.042   0.042   0.000   0.000
0.02875   0.00475   303.465   686.719   1.046   1.046   0.042   0.042   0.000   0.000
0.03125   0.00475   305.255   686.719   1.046   1.046   0.042   0.042   0.000   0.000
0.03375   0.00475   307.048   686.719   1.046   1.046   0.042   0.042   0.000   0.000
0.03625   0.00475   308.796   686.719   1.046   1.046   0.042   0.042   0.000   0.000
0.03875   0.00475   310.498   686.719   1.046   1.046   0.042   0.042   0.000   0.000
0.04125   0.00475   312.170   686.719   1.046   1.046   0.042   0.042   0.000   0.000
0.04375   0.00475   313.860   686.719   1.046   1.046   0.042   0.042   0.000   0.000
0.04625   0.00475   316.140   686.719   1.046   1.046   0.042   0.042   0.000   0.000
0.04875   0.00475   327.946   686.719   1.046   1.046   0.042   0.000   0.000   6.074
0.00125   0.00425   294.333   686.719   1.046   2.085   0.000   0.042   0.000   0.000
0.00375   0.00425   294.400   686.719   1.046   2.085   0.042   0.042   0.000   0.000
0.00625   0.00425   294.538   686.719   1.046   2.085   0.042   0.042   0.000   0.000
0.00875   0.00425   294.748   686.719   1.046   2.085   0.042   0.042   0.000   0.000
0.01125   0.00425   295.034   686.719   1.046   2.085   0.042   0.042   0.000   0.000
0.01375   0.00425   295.404   686.719   1.046   2.085   0.042   0.042   0.000   0.000
0.01625   0.00425   295.864   686.719   1.046   2.085   0.042   0.042   0.000   0.000
0.01875   0.00425   296.422   686.719   1.046   2.085   0.042   0.042   0.000   0.000
0.02125   0.00425   297.087   686.719   1.046   2.085   0.042   0.042   0.000   0.000
0.02375   0.00425   297.869   686.719   1.046   2.085   0.042   0.042   0.000   0.000
0.02625   0.00425   298.774   686.719   1.046   2.085   0.042   0.042   0.000   0.000
0.02875   0.00425   299.808   686.719   1.046   2.085   0.042   0.042   0.000   0.000
0.03125   0.00425   300.955   686.719   1.046   2.085   0.042   0.042   0.000   0.000
0.03375   0.00425   302.166   686.719   1.046   2.085   0.042   0.042   0.000   0.000
0.03625   0.00425   303.426   686.719   1.046   2.085   0.042   0.042   0.000   0.000
0.03875   0.00425   304.737   686.719   1.046   2.085   0.042   0.042   0.000   0.000
0.04125   0.00425   306.107   686.719   1.046   2.085   0.042   0.042   0.000   0.000
0.04375   0.00425   307.558   686.719   1.046   2.085   0.042   0.042   0.000   0.000
0.04625   0.00425   309.343   686.719   1.046   2.085   0.042   0.042   0.000   0.000
0.04875   0.00425   316.141   686.719   1.046   2.085   0.042   0.000   0.000   6.088
0.00125   0.00375   294.222   1137.797   2.085   268.000   0.000   10.720   0.000   0.000
0.00375   0.00375   294.278   1137.797   2.085   268.000   10.720   10.720   0.000   0.000
0.00625   0.00375   294.390   1137.797   2.085   268.000   10.720   10.720   0.000   0.000
0.00875   0.00375   294.560   1137.797   2.085   268.000   10.720   10.720   0.000   0.000
0.01125   0.00375   294.792   1137.797   2.085   268.000   10.720   10.720   0.000   0.000
0.01375   0.00375   295.088   1137.797   2.085   268.000   10.720   10.720   0.000   0.000
0.01625   0.00375   295.453   1137.797   2.085   268.000   10.720   10.720   0.000   0.000
0.01875   0.00375   295.891   1137.797   2.085   268.000   10.720   10.720   0.000   0.000
0.02125   0.00375   296.406   1137.797   2.085   268.000   10.720   10.720   0.000   0.000
0.02375   0.00375   297.003   1137.797   2.085   268.000   10.720   10.720   0.000   0.000
0.02625   0.00375   297.686   1137.797   2.085   268.000   10.720   10.720   0.000   0.000
0.02875   0.00375   298.459   1137.797   2.085   268.000   10.720   10.720   0.000   0.000
0.03125   0.00375   299.322   1137.797   2.085   268.000   10.720   10.720   0.000   0.000
0.03375   0.00375   300.277   1137.797   2.085   268.000   10.720   10.720   0.000   0.000
0.03625   0.00375   301.326   1137.797   2.085   268.000   10.720   10.720   0.000   0.000
0.03875   0.00375   302.470   1137.797   2.085   268.000   10.720   10.720   0.000   0.000
0.04125   0.00375   303.713   1137.797   2.085   268.000   10.720   10.720   0.000   0.000
0.04375   0.00375   305.059   1137.797   2.085   268.000   10.720   10.720   0.000   0.000
0.04625   0.00375   306.517   1137.797   2.085   268.000   10.720   10.720   0.000   0.000
0.04875   0.00375   308.126   1137.797   2.085   268.000   10.720   0.000   0.000   16.256
0.00125   0.00325   294.221   1137.797   268.000   268.000   0.000   10.720   0.000   0.000
0.00375   0.00325   294.277   1137.797   268.000   268.000   10.720   10.720   0.000   0.000
0.00625   0.00325   294.389   1137.797   268.000   268.000   10.720   10.720   0.000   0.000
0.00875   0.00325   294.559   1137.797   268.000   268.000   10.720   10.720   0.000   0.000
0.01125   0.00325   294.791   1137.797   268.000   268.000   10.720   10.720   0.000   0.000
0.01375   0.00325   295.086   1137.797   268.000   268.000   10.720   10.720   0.000   0.000
0.01625   0.00325   295.451   1137.797   268.000   268.000   10.720   10.720   0.000   0.000
0.01875   0.00325   295.887   1137.797   268.000   268.000   10.720   10.720   0.000   0.000
0.02125   0.00325   296.402   1137.797   268.000   268.000   10.720   10.720   0.000   0.000
0.02375   0.00325   296.998   1137.797   268.000   268.000   10.720   10.720   0.000   0.000
0.02625   0.00325   297.679   1137.797   268.000   268.000   10.720   10.720   0.000   0.000
0.02875   0.00325   298.449   1137.797   268.000   268.000   10.720   10.720   0.000   0.000
0.03125   0.00325   299.311   1137.797   268.000   268.000   10.720   10.720   0.000   0.000
0.03375   0.00325   300.264   1137.797   268.000   268.000   10.720   10.720   0.000   0.000
0.03625   0.00325   301.312   1137.797   268.000   268.000   10.720   10.720   0.000   0.000
0.03875   0.00325   302.455   1137.797   268.000   268.000   10.720   10.720   0.000   0.000
0.04125   0.00325   303.697   1137.797   268.000   268.000   10.720   10.720   0.000   0.000
0.04375   0.00325   305.042   1137.797   268.000   268.000   10.720   10.720   0.000   0.000
0.04625   0.00325   306.496   1137.797   268.000   268.000   10.720   10.720   0.000   0.000
0.04875   0.00325   308.074   1137.797   268.000   268.000   10.720   0.000   0.000   16.256
0.00125   0.00275   294.221   1137.797   268.000   268.000   0.000   10.720   0.000   0.000
0.00375   0.00275   294.276   1137.797   268.000   268.000   10.720   10.720   0.000   0.000
0.00625   0.00275   294.388   1137.797   268.000   268.000   10.720   10.720   0.000   0.000
0.00875   0.00275   294.558   1137.797   268.000   268.000   10.720   10.720   0.000   0.000
0.01125   0.00275   294.789   1137.797   268.000   268.000   10.720   10.720   0.000   0.000
0.01375   0.00275   295.084   1137.797   268.000   268.000   10.720   10.720   0.000   0.000
0.01625   0.00275   295.448   1137.797   268.000   268.000   10.720   10.720   0.000   0.000
0.01875   0.00275   295.884   1137.797   268.000   268.000   10.720   10.720   0.000   0.000
0.02125   0.00275   296.398   1137.797   268.000   268.000   10.720   10.720   0.000   0.000
0.02375   0.00275   296.992   1137.797   268.000   268.000   10.720   10.720   0.000   0.000
0.02625   0.00275   297.673   1137.797   268.000   268.000   10.720   10.720   0.000   0.000
0.02875   0.00275   298.442   1137.797   268.000   268.000   10.720   10.720   0.000   0.000
0.03125   0.00275   299.301   1137.797   268.000   268.000   10.720   10.720   0.000   0.000
0.03375   0.00275   300.253   1137.797   268.000   268.000   10.720   10.720   0.000   0.000
0.03625   0.00275   301.299   1137.797   268.000   268.000   10.720   10.720   0.000   0.000
0.03875   0.00275   302.442   1137.797   268.000   268.000   10.720   10.720   0.000   0.000
0.04125   0.00275   303.683   1137.797   268.000   268.000   10.720   10.720   0.000   0.000
0.04375   0.00275   305.026   1137.797   268.000   268.000   10.720   10.720   0.000   0.000
0.04625   0.00275   306.476   1137.797   268.000   268.000   10.720   10.720   0.000   0.000
0.04875   0.00275   308.032   1137.797   268.000   268.000   10.720   0.000   0.000   16.257
0.00125   0.00225   294.220   1137.797   268.000   268.000   0.000   10.720   0.000   0.000
0.00375   0.00225   294.275   1137.797   268.000   268.000   10.720   10.720   0.000   0.000
0.00625   0.00225   294.387   1137.797   268.000   268.000   10.720   10.720   0.000   0.000
0.00875   0.00225   294.557   1137.797   268.000   268.000   10.720   10.720   0.000   0.000
0.01125   0.00225   294.788   1137.797   268.000   268.000   10.720   10.720   0.000   0.000
0.01375   0.00225   295.083   1137.797   268.000   268.000   10.720   10.720   0.000   0.000
0.01625   0.00225   295.446   1137.797   268.000   268.000   10.720   10.720   0.000   0.000
0.01875   0.00225   295.882   1137.797   268.000   268.000   10.720   10.720   0.000   0.000
0.02125   0.00225   296.394   1137.797   268.000   268.000   10.720   10.720   0.000   0.000
0.02375   0.00225   296.988   1137.797   268.000   268.000   10.720   10.720   0.000   0.000
0.02625   0.00225   297.667   1137.797   268.000   268.000   10.720   10.720   0.000   0.000
0.02875   0.00225   298.435   1137.797   268.000   268.000   10.720   10.720   0.000   0.000
0.03125   0.00225   299.293   1137.797   268.000   268.000   10.720   10.720   0.000   0.000
0.03375   0.00225   300.244   1137.797   268.000   268.000   10.720   10.720   0.000   0.000
0.03625   0.00225   301.289   1137.797   268.000   268.000   10.720   10.720   0.000   0.000
0.03875   0.00225   302.431   1137.797   268.000   268.000   10.720   10.720   0.000   0.000
0.04125   0.00225   303.671   1137.797   268.000   268.000   10.720   10.720   0.000   0.000
0.04375   0.00225   305.014   1137.797   268.000   268.000   10.720   10.720   0.000   0.000
0.04625   0.00225   306.459   1137.797   268.000   268.000   10.720   10.720   0.000   0.000
0.04875   0.00225   307.997   1137.797   268.000   268.000   10.720   0.000   0.000   16.257
0.00125   0.00175   294.220   1137.797   268.000   268.000   0.000   10.720   0.000   0.000
0.00375   0.00175   294.275   1137.797   268.000   268.000   10.720   10.720   0.000   0.000
0.00625   0.00175   294.387   1137.797   268.000   268.000   10.720   10.720   0.000   0.000
0.00875   0.00175   294.556   1137.797   268.000   268.000   10.720   10.720   0.000   0.000
0.01125   0.00175   294.787   1137.797   268.000   268.000   10.720   10.720   0.000   0.000
0.01375   0.00175   295.082   1137.797   268.000   268.000   10.720   10.720   0.000   0.000
0.01625   0.00175   295.445   1137.797   268.000   268.000   10.720   10.720   0.000   0.000
0.01875   0.00175   295.880   1137.797   268.000   268.000   10.720   10.720   0.000   0.000
0.02125   0.00175   296.392   1137.797   268.000   268.000   10.720   10.720   0.000   0.000