VARIABLES = X, Y, T, ap,an,as,aw,ae,sp,su
ZONE I=20,J=20, F=POINT,t="10.272"
0.00125   0.00975   293.500   1137.797   0.000   268.000   0.000   10.720   0.000   -0.000
0.00375   0.00975   293.574   1137.797   0.000   268.000   10.720   10.720   0.000   -0.000
0.00625   0.00975   293.728   1137.797   0.000   268.000   10.720   10.720   0.000   -0.001
0.00875   0.00975   293.975   1137.797   0.000   268.000   10.720   10.720   0.000   -0.001
0.01125   0.00975   294.335   1137.797   0.000   268.000   10.720   10.720   0.000   -0.001
0.01375   0.00975   294.835   1137.797   0.000   268.000   10.720   10.720   0.000   -0.001
0.01625   0.00975   295.509   1137.797   0.000   268.000   10.720   10.720   0.000   -0.002
0.01875   0.00975   296.397   1137.797   0.000   268.000   10.720   10.720   0.000   -0.003
0.02125   0.00975   297.550   1137.797   0.000   268.000   10.720   10.720   0.000   -0.003
0.02375   0.00975   299.023   1137.797   0.000   268.000   10.720   10.720   0.000   -0.005
0.02625   0.00975   300.885   1137.797   0.000   268.000   10.720   10.720   0.000   -0.006
0.02875   0.00975   303.253   1137.797   0.000   268.000   10.720   10.720   0.000   -0.008
0.03125   0.00975   306.577   1137.797   0.000   268.000   10.720   10.720   0.000   81.292
0.03375   0.00975   309.110   1137.797   0.000   268.000   10.720   10.720   0.000   81.256
0.03625   0.00975   311.306   1137.797   0.000   268.000   10.720   10.720   0.000   81.225
0.03875   0.00975   313.279   1137.797   0.000   268.000   10.720   10.720   0.000   81.196
0.04125   0.00975   315.100   1137.797   0.000   268.000   10.720   10.720   0.000   81.169
0.04375   0.00975   316.822   1137.797   0.000   268.000   10.720   10.720   0.000   81.143
0.04625   0.00975   318.484   1137.797   0.000   268.000   10.720   10.720   0.000   81.118
0.04875   0.00975   320.094   1137.797   0.000   268.000   10.720   0.000   0.000   97.316
0.00125   0.00925   293.500   1137.797   268.000   268.000   0.000   10.720   0.000   0.000
0.00375   0.00925   293.573   1137.797   268.000   268.000   10.720   10.720   0.000   0.000
0.00625   0.00925   293.727   1137.797   268.000   268.000   10.720   10.720   0.000   0.000
0.00875   0.00925   293.974   1137.797   268.000   268.000   10.720   10.720   0.000   0.000
0.01125   0.00925   294.335   1137.797   268.000   268.000   10.720   10.720   0.000   0.000
0.01375   0.00925   294.834   1137.797   268.000   268.000   10.720   10.720   0.000   0.000
0.01625   0.00925   295.508   1137.797   268.000   268.000   10.720   10.720   0.000   0.000
0.01875   0.00925   296.396   1137.797   268.000   268.000   10.720   10.720   0.000   0.000
0.02125   0.00925   297.548   1137.797   268.000   268.000   10.720   10.720   0.000   0.000
0.02375   0.00925   299.020   1137.797   268.000   268.000   10.720   10.720   0.000   0.000
0.02625   0.00925   300.881   1137.797   268.000   268.000   10.720   10.720   0.000   0.000
0.02875   0.00925   303.233   1137.797   268.000   268.000   10.720   10.720   0.000   0.000
0.03125   0.00925   306.325   1137.797   268.000   268.000   10.720   10.720   0.000   0.000
0.03375   0.00925   308.843   1137.797   268.000   268.000   10.720   10.720   0.000   0.000
0.03625   0.00925   311.036   1137.797   268.000   268.000   10.720   10.720   0.000   0.000
0.03875   0.00925   313.009   1137.797   268.000   268.000   10.720   10.720   0.000   0.000
0.04125   0.00925   314.830   1137.797   268.000   268.000   10.720   10.720   0.000   0.000
0.04375   0.00925   316.552   1137.797   268.000   268.000   10.720   10.720   0.000   0.000
0.04625   0.00925   318.215   1137.797   268.000   268.000   10.720   10.720   0.000   0.000
0.04875   0.00925   319.827   1137.797   268.000   268.000   10.720   0.000   0.000   16.223
0.00125   0.00875   293.499   1137.797   268.000   268.000   0.000   10.720   0.000   0.000
0.00375   0.00875   293.573   1137.797   268.000   268.000   10.720   10.720   0.000   0.000
0.00625   0.00875   293.727   1137.797   268.000   268.000   10.720   10.720   0.000   0.000
0.00875   0.00875   293.974   1137.797   268.000   268.000   10.720   10.720   0.000   0.000
0.01125   0.00875   294.334   1137.797   268.000   268.000   10.720   10.720   0.000   0.000
0.01375   0.00875   294.833   1137.797   268.000   268.000   10.720   10.720   0.000   0.000
0.01625   0.00875   295.506   1137.797   268.000   268.000   10.720   10.720   0.000   0.000
0.01875   0.00875   296.394   1137.797   268.000   268.000   10.720   10.720   0.000   0.000
0.02125   0.00875   297.545   1137.797   268.000   268.000   10.720   10.720   0.000   0.000
0.02375   0.00875   299.016   1137.797   268.000   268.000   10.720   10.720   0.000   0.000
0.02625   0.00875   300.872   1137.797   268.000   268.000   10.720   10.720   0.000   0.000
0.02875   0.00875   303.201   1137.797   268.000   268.000   10.720   10.720   0.000   0.000
0.03125   0.00875   306.117   1137.797   268.000   268.000   10.720   10.720   0.000   0.000
0.03375   0.00875   308.612   1137.797   268.000   268.000   10.720   10.720   0.000   0.000
0.03625   0.00875   310.801   1137.797   268.000   268.000   10.720   10.720   0.000   0.000
0.03875   0.00875   312.773   1137.797   268.000   268.000   10.720   10.720   0.000   0.000
0.04125   0.00875   314.592   1137.797   268.000   268.000   10.720   10.720   0.000   0.000
0.04375   0.00875   316.314   1137.797   268.000   268.000   10.720   10.720   0.000   0.000
0.04625   0.00875   317.978   1137.797   268.000   268.000   10.720   10.720   0.000   0.000
0.04875   0.00875   319.596   1137.797   268.000   268.000   10.720   0.000   0.000   16.224
0.00125   0.00825   293.499   1137.797   268.000   268.000   0.000   10.720   0.000   0.000
0.00375   0.00825   293.572   1137.797   268.000   268.000   10.720   10.720   0.000   0.000
0.00625   0.00825   293.726   1137.797   268.000   268.000   10.720   10.720   0.000   0.000
0.00875   0.00825   293.973   1137.797   268.000   268.000   10.720   10.720   0.000   0.000
0.01125   0.00825   294.332   1137.797   268.000   268.000   10.720   10.720   0.000   0.000
0.01375   0.00825   294.831   1137.797   268.000   268.000   10.720   10.720   0.000   0.000
0.01625   0.00825   295.504   1137.797   268.000   268.000   10.720   10.720   0.000   0.000
0.01875   0.00825   296.391   1137.797   268.000   268.000   10.720   10.720   0.000   0.000
0.02125   0.00825   297.541   1137.797   268.000   268.000   10.720   10.720   0.000   0.000
0.02375   0.00825   299.010   1137.797   268.000   268.000   10.720   10.720   0.000   0.000
0.02625   0.00825   300.861   1137.797   268.000   268.000   10.720   10.720   0.000   0.000
0.02875   0.00825   303.164   1137.797   268.000   268.000   10.720   10.720   0.000   0.000
0.03125   0.00825   305.947   1137.797   268.000   268.000   10.720   10.720   0.000   0.000
0.03375   0.00825   308.415   1137.797   268.000   268.000   10.720   10.720   0.000   0.000
0.03625   0.00825   310.599   1137.797   268.000   268.000   10.720   10.720   0.000   0.000
0.03875   0.00825   312.569   1137.797   268.000   268.000   10.720   10.720   0.000   0.000
0.04125   0.00825   314.388   1137.797   268.000   268.000   10.720   10.720   0.000   0.000
0.04375   0.00825   316.109   1137.797   268.000   268.000   10.720   10.720   0.000   0.000
0.04625   0.00825   317.775   1137.797   268.000   268.000   10.720   10.720   0.000   0.000
0.04875   0.00825   319.400   1137.797   268.000   268.000   10.720   0.000   0.000   16.225
0.00125   0.00775   293.498   1137.797   268.000   268.000   0.000   10.720   0.000   0.000
0.00375   0.00775   293.571   1137.797   268.000   268.000   10.720   10.720   0.000   0.000
0.00625   0.00775   293.725   1137.797   268.000   268.000   10.720   10.720   0.000   0.000
0.00875   0.00775   293.971   1137.797   268.000   268.000   10.720   10.720   0.000   0.000
0.01125   0.00775   294.330   1137.797   268.000   268.000   10.720   10.720   0.000   0.000
0.01375   0.00775   294.829   1137.797   268.000   268.000   10.720   10.720   0.000   0.000
0.01625   0.00775   295.500   1137.797   268.000   268.000   10.720   10.720   0.000   0.000
0.01875   0.00775   296.386   1137.797   268.000   268.000   10.720   10.720   0.000   0.000
0.02125   0.00775   297.535   1137.797   268.000   268.000   10.720   10.720   0.000   0.000
0.02375   0.00775   299.002   1137.797   268.000   268.000   10.720   10.720   0.000   0.000
0.02625   0.00775   300.846   1137.797   268.000   268.000   10.720   10.720   0.000   0.000
0.02875   0.00775   303.125   1137.797   268.000   268.000   10.720   10.720   0.000   0.000
0.03125   0.00775   305.809   1137.797   268.000   268.000   10.720   10.720   0.000   0.000
0.03375   0.00775   308.253   1137.797   268.000   268.000   10.720   10.720   0.000   0.000
0.03625   0.00775   310.431   1137.797   268.000   268.000   10.720   10.720   0.000   0.000
0.03875   0.00775   312.398   1137.797   268.000   268.000   10.720   10.720   0.000   0.000
0.04125   0.00775   314.215   1137.797   268.000   268.000   10.720   10.720   0.000   0.000
0.04375   0.00775   315.936   1137.797   268.000   268.000   10.720   10.720   0.000   0.000
0.04625   0.00775   317.604   1137.797   268.000   268.000   10.720   10.720   0.000   0.000
0.04875   0.00775   319.240   1137.797   268.000   268.000   10.720   0.000   0.000   16.225
0.00125   0.00725   293.497   1137.797   268.000   268.000   0.000   10.720   0.000   0.000
0.00375   0.00725   293.570   1137.797   268.000   268.000   10.720   10.720   0.000   0.000
0.00625   0.00725   293.723   1137.797   268.000   268.000   10.720   10.720   0.000   0.000
0.00875   0.00725   293.969   1137.797   268.000   268.000   10.720   10.720   0.000   0.000
0.01125   0.00725   294.328   1137.797   268.000   268.000   10.720   10.720   0.000   0.000
0.01375   0.00725   294.825   1137.797   268.000   268.000   10.720   10.720   0.000   0.000
0.01625   0.00725   295.496   1137.797   268.000   268.000   10.720   10.720   0.000   0.000
0.01875   0.00725   296.380   1137.797   268.000   268.000   10.720   10.720   0.000   0.000
0.02125   0.00725   297.527   1137.797   268.000   268.000   10.720   10.720   0.000   0.000
0.02375   0.00725   298.992   1137.797   268.000   268.000   10.720   10.720   0.000   0.000
0.02625   0.00725   300.831   1137.797   268.000   268.000   10.720   10.720   0.000   0.000
0.02875   0.00725   303.088   1137.797   268.000   268.000   10.720   10.720   0.000   0.000
0.03125   0.00725   305.701   1137.797   268.000   268.000   10.720   10.720   0.000   0.000
0.03375   0.00725   308.124   1137.797   268.000   268.000   10.720   10.720   0.000   0.000
0.03625   0.00725   310.296   1137.797   268.000   268.000   10.720   10.720   0.000   0.000
0.03875   0.00725   312.260   1137.797   268.000   268.000   10.720   10.720   0.000   0.000
0.04125   0.00725   314.076   1137.797   268.000   268.000   10.720   10.720   0.000   0.000
0.04375   0.00725   315.796   1137.797   268.000   268.000   10.720   10.720   0.000   0.000
0.04625   0.00725   317.466   1137.797   268.000   268.000   10.720   10.720   0.000   0.000
0.04875   0.00725   319.118   1137.797   268.000   268.000   10.720   0.000   0.000   16.226
0.00125   0.00675   293.495   1137.797   268.000   268.000   0.000   10.720   0.000   0.000
0.00375   0.00675   293.569   1137.797   268.000   268.000   10.720   10.720   0.000   0.000
0.00625   0.00675   293.721   1137.797   268.000   268.000   10.720   10.720   0.000   0.000
0.00875   0.00675   293.967   1137.797   268.000   268.000   10.720   10.720   0.000   0.000
0.01125   0.00675   294.325   1137.797   268.000   268.000   10.720   10.720   0.000   0.000
0.01375   0.00675   294.821   1137.797   268.000   268.000   10.720   10.720   0.000   0.000
0.01625   0.00675   295.491   1137.797   268.000   268.000   10.720   10.720   0.000   0.000
0.01875   0.00675   296.374   1137.797   268.000   268.000   10.720   10.720   0.000   0.000
0.02125   0.00675   297.519   1137.797   268.000   268.000   10.720   10.720   0.000   0.000
0.02375   0.00675   298.980   1137.797   268.000   268.000   10.720   10.720   0.000   0.000
0.02625   0.00675   300.814   1137.797   268.000   268.000   10.720   10.720   0.000   0.000
0.02875   0.00675   303.055   1137.797   268.000   268.000   10.720   10.720   0.000   0.000
0.03125   0.00675   305.621   1137.797   268.000   268.000   10.720   10.720   0.000   0.000
0.03375   0.00675   308.028   1137.797   268.000   268.000   10.720   10.720   0.000   0.000
0.03625   0.00675   310.194   1137.797   268.000   268.000   10.720   10.720   0.000   0.000
0.03875   0.00675   312.155   1137.797   268.000   268.000   10.720   10.720   0.000   0.000
0.04125   0.00675   313.969   1137.797   268.000   268.000   10.720   10.720   0.000   0.000
0.04375   0.00675   315.687   1137.797   268.000   268.000   10.720   10.720   0.000   0.000
0.04625   0.00675   317.360   1137.797   268.000   268.000   10.720   10.720   0.000   0.000
0.04875   0.00675   319.032   1137.797   268.000   268.000   10.720   0.000   0.000   16.226
0.00125   0.00625   293.494   1137.797   268.000   2.085   0.000   10.720   0.000   0.000
0.00375   0.00625   293.567   1137.797   268.000   2.085   10.720   10.720   0.000   0.000
0.00625   0.00625   293.719   1137.797   268.000   2.085   10.720   10.720   0.000   0.000
0.00875   0.00625   293.964   1137.797   268.000   2.085   10.720   10.720   0.000   0.000
0.01125   0.00625   294.321   1137.797   268.000   2.085   10.720   10.720   0.000   0.000
0.01375   0.00625   294.817   1137.797   268.000   2.085   10.720   10.720   0.000   0.000
0.01625   0.00625   295.485   1137.797   268.000   2.085   10.720   10.720   0.000   0.000
0.01875   0.00625   296.366   1137.797   268.000   2.085   10.720   10.720   0.000   0.000
0.02125   0.00625   297.509   1137.797   268.000   2.085   10.720   10.720   0.000   0.000
0.02375   0.00625   298.967   1137.797   268.000   2.085   10.720   10.720   0.000   0.000
0.02625   0.00625   300.796   1137.797   268.000   2.085   10.720   10.720   0.000   0.000
0.02875   0.00625   303.027   1137.797   268.000   2.085   10.720   10.720   0.000   0.000
0.03125   0.00625   305.568   1137.797   268.000   2.085   10.720   10.720   0.000   0.000
0.03375   0.00625   307.965   1137.797   268.000   2.085   10.720   10.720   0.000   0.000
0.03625   0.00625   310.126   1137.797   268.000   2.085   10.720   10.720   0.000   0.000
0.03875   0.00625   312.083   1137.797   268.000   2.085   10.720   10.720   0.000   0.000
0.04125   0.00625   313.894   1137.797   268.000   2.085   10.720   10.720   0.000   0.000
0.04375   0.00625   315.611   1137.797   268.000   2.085   10.720   10.720   0.000   0.000
0.04625   0.00625   317.285   1137.797   268.000   2.085   10.720   10.720   0.000   0.000
0.04875   0.00625   318.984   1137.797   268.000   2.085   10.720   0.000   0.000   16.226
0.00125   0.00575   293.273   686.719   2.085   1.046   0.000   0.042   0.000   0.000
0.00375   0.00575   293.319   686.719   2.085   1.046   0.042   0.042   0.000   0.000
0.00625   0.00575   293.416   686.719   2.085   1.046   0.042   0.042   0.000   0.000
0.00875   0.00575   293.574   686.719   2.085   1.046   0.042   0.042   0.000   0.000
0.01125   0.00575   293.808   686.719   2.085   1.046   0.042   0.042   0.000   0.000
0.01375   0.00575   294.139   686.719   2.085   1.046   0.042   0.042   0.000   0.000
0.01625   0.00575   294.595   686.719   2.085   1.046   0.042   0.042   0.000   0.000
0.01875   0.00575   295.210   686.719   2.085   1.046   0.042   0.042   0.000   0.000
0.02125   0.00575   296.024   686.719   2.085   1.046   0.042   0.042   0.000   0.000
0.02375   0.00575   297.086   686.719   2.085   1.046   0.042   0.042   0.000   0.000
0.02625   0.00575   298.444   686.719   2.085   1.046   0.042   0.042   0.000   0.000
0.02875   0.00575   300.130   686.719   2.085   1.046   0.042   0.042   0.000   0.000
0.03125   0.00575   302.068   686.719   2.085   1.046   0.042   0.042   0.000   0.000
0.03375   0.00575   303.897   686.719   2.085   1.046   0.042   0.042   0.000   0.000
0.03625   0.00575   305.546   686.719   2.085   1.046   0.042   0.042   0.000   0.000
0.03875   0.00575   307.051   686.719   2.085   1.046   0.042   0.042   0.000   0.000
0.04125   0.00575   308.470   686.719   2.085   1.046   0.042   0.042   0.000   0.000
0.04375   0.00575   309.868   686.719   2.085   1.046   0.042   0.042   0.000   0.000
0.04625   0.00575   311.488   686.719   2.085   1.046   0.042   0.042   0.000   0.000
0.04875   0.00575   317.865   686.719   2.085   1.046   0.042   0.000   0.000   6.086
0.00125   0.00525   293.098   686.719   1.046   1.046   0.000   0.042   0.000   0.000
0.00375   0.00525   293.117   686.719   1.046   1.046   0.042   0.042   0.000   0.000
0.00625   0.00525   293.159   686.719   1.046   1.046   0.042   0.042   0.000   0.000
0.00875   0.00525   293.228   686.719   1.046   1.046   0.042   0.042   0.000   0.000
0.01125   0.00525   293.334   686.719   1.046   1.046   0.042   0.042   0.000   0.000
0.01375   0.00525   293.488   686.719   1.046   1.046   0.042   0.042   0.000   0.000
0.01625   0.00525   293.708   686.719   1.046   1.046   0.042   0.042   0.000   0.000
0.01875   0.00525   294.014   686.719   1.046   1.046   0.042   0.042   0.000   0.000
0.02125   0.00525   294.435   686.719   1.046   1.046   0.042   0.042   0.000   0.000
0.02375   0.00525   295.003   686.719   1.046   1.046   0.042   0.042   0.000   0.000
0.02625   0.00525   295.755   686.719   1.046   1.046   0.042   0.042   0.000   0.000
0.02875   0.00525   296.715   686.719   1.046   1.046   0.042   0.042   0.000   0.000
0.03125   0.00525   297.840   686.719   1.046   1.046   0.042   0.042   0.000   0.000
0.03375   0.00525   298.915   686.719   1.046   1.046   0.042   0.042   0.000   0.000
0.03625   0.00525   299.901   686.719   1.046   1.046   0.042   0.042   0.000   0.000
0.03875   0.00525   300.836   686.719   1.046   1.046   0.042   0.042   0.000   0.000
0.04125   0.00525   301.773   686.719   1.046   1.046   0.042   0.042   0.000   0.000
0.04375   0.00525   302.784   686.719   1.046   1.046   0.042   0.042   0.000   0.000
0.04625   0.00525   304.347   686.719   1.046   1.046   0.042   0.042   0.000   0.000
0.04875   0.00525   315.017   686.719   1.046   1.046   0.042   0.000   0.000   6.089
0.00125   0.00475   293.035   686.719   1.046   1.046   0.000   0.042   0.000   0.000
0.00375   0.00475   293.043   686.719   1.046   1.046   0.042   0.042   0.000   0.000
0.00625   0.00475   293.060   686.719   1.046   1.046   0.042   0.042   0.000   0.000
0.00875   0.00475   293.090   686.719   1.046   1.046   0.042   0.042   0.000   0.000
0.01125   0.00475   293.137   686.719   1.046   1.046   0.042   0.042   0.000   0.000
0.01375   0.00475   293.208   686.719   1.046   1.046   0.042   0.042   0.000   0.000
0.01625   0.00475   293.312   686.719   1.046   1.046   0.042   0.042   0.000   0.000
0.01875   0.00475   293.462   686.719   1.046   1.046   0.042   0.042   0.000   0.000
0.02125   0.00475   293.675   686.719   1.046   1.046   0.042   0.042   0.000   0.000
0.02375   0.00475   293.973   686.719   1.046   1.046   0.042   0.042   0.000   0.000
0.02625   0.00475   294.379   686.719   1.046   1.046   0.042   0.042   0.000   0.000
0.02875   0.00475   294.913   686.719   1.046   1.046   0.042   0.042   0.000   0.000
0.03125   0.00475   295.559   686.719   1.046   1.046   0.042   0.042   0.000   0.000
0.03375   0.00475   296.211   686.719   1.046   1.046   0.042   0.042   0.000   0.000
0.03625   0.00475   296.857   686.719   1.046   1.046   0.042   0.042   0.000   0.000
0.03875   0.00475   297.531   686.719   1.046   1.046   0.042   0.042   0.000   0.000
0.04125   0.00475   298.274   686.719   1.046   1.046   0.042   0.042   0.000   0.000
0.04375   0.00475   299.149   686.719   1.046   1.046   0.042   0.042   0.000   0.000
0.04625   0.00475   300.627   686.719   1.046   1.046   0.042   0.042   0.000   0.000
0.04875   0.00475   311.257   686.719   1.046   1.046   0.042   0.000   0.000   6.093
0.00125   0.00425   293.018   686.719   1.046   2.085   0.000   0.042   0.000   0.000
0.00375   0.00425   293.023   686.719   1.046   2.085   0.042   0.042   0.000   0.000
0.00625   0.00425   293.033   686.719   1.046   2.085   0.042   0.042   0.000   0.000
0.00875   0.00425   293.050   686.719   1.046   2.085   0.042   0.042   0.000   0.000
0.01125   0.00425   293.077   686.719   1.046   2.085   0.042   0.042   0.000   0.000
0.01375   0.00425   293.119   686.719   1.046   2.085   0.042   0.042   0.000   0.000
0.01625   0.00425   293.181   686.719   1.046   2.085   0.042   0.042   0.000   0.000
0.01875   0.00425   293.270   686.719   1.046   2.085   0.042   0.042   0.000   0.000
0.02125   0.00425   293.399   686.719   1.046   2.085   0.042   0.042   0.000   0.000
0.02375   0.00425   293.578   686.719   1.046   2.085   0.042   0.042   0.000   0.000
0.02625   0.00425   293.824   686.719   1.046   2.085   0.042   0.042   0.000   0.000
0.02875   0.00425   294.153   686.719   1.046   2.085   0.042   0.042   0.000   0.000
0.03125   0.00425   294.569   686.719   1.046   2.085   0.042   0.042   0.000   0.000
0.03375   0.00425   295.051   686.719   1.046   2.085   0.042   0.042   0.000   0.000
0.03625   0.00425   295.608   686.719   1.046   2.085   0.042   0.042   0.000   0.000
0.03875   0.00425   296.265   686.719   1.046   2.085   0.042   0.042   0.000   0.000
0.04125   0.00425   297.050   686.719   1.046   2.085   0.042   0.042   0.000   0.000
0.04375   0.00425   298.000   686.719   1.046   2.085   0.042   0.042   0.000   0.000
0.04625   0.00425   299.335   686.719   1.046   2.085   0.042   0.042   0.000   0.000
0.04875   0.00425   305.579   686.719   1.046   2.085   0.042   0.000   0.000   6.099
0.00125   0.00375   293.024   1137.797   2.085   268.000   0.000   10.720   0.000   0.000
0.00375   0.00375   293.029   1137.797   2.085   268.000   10.720   10.720   0.000   0.000
0.00625   0.00375   293.041   1137.797   2.085   268.000   10.720   10.720   0.000   0.000
0.00875   0.00375   293.060   1137.797   2.085   268.000   10.720   10.720   0.000   0.000
0.01125   0.00375   293.090   1137.797   2.085   268.000   10.720   10.720   0.000   0.000
0.01375   0.00375   293.134   1137.797   2.085   268.000   10.720   10.720   0.000   0.000
0.01625   0.00375   293.198   1137.797   2.085   268.000   10.720   10.720   0.000   0.000
0.01875   0.00375   293.288   1137.797   2.085   268.000   10.720   10.720   0.000   0.000
0.02125   0.00375   293.412   1137.797   2.085   268.000   10.720   10.720   0.000   0.000
0.02375   0.00375   293.581   1137.797   2.085   268.000   10.720   10.720   0.000   0.000
0.02625   0.00375   293.806   1137.797   2.085   268.000   10.720   10.720   0.000   0.000
0.02875   0.00375   294.101   1137.797   2.085   268.000   10.720   10.720   0.000   0.000
0.03125   0.00375   294.479   1137.797   2.085   268.000   10.720   10.720   0.000   0.000
0.03375   0.00375   294.957   1137.797   2.085   268.000   10.720   10.720   0.000   0.000
0.03625   0.00375   295.551   1137.797   2.085   268.000   10.720   10.720   0.000   0.000
0.03875   0.00375   296.279   1137.797   2.085   268.000   10.720   10.720   0.000   0.000
0.04125   0.00375   297.161   1137.797   2.085   268.000   10.720   10.720   0.000   0.000
0.04375   0.00375   298.215   1137.797   2.085   268.000   10.720   10.720   0.000   0.000
0.04625   0.00375   299.464   1137.797   2.085   268.000   10.720   10.720   0.000   0.000
0.04875   0.00375   300.959   1137.797   2.085   268.000   10.720   0.000   0.000   16.275
0.00125   0.00325   293.024   1137.797   268.000   268.000   0.000   10.720   0.000   0.000
0.00375   0.00325   293.029   1137.797   268.000   268.000   10.720   10.720   0.000   0.000
0.00625   0.00325   293.041   1137.797   268.000   268.000   10.720   10.720   0.000   0.000
0.00875   0.00325   293.060   1137.797   268.000   268.000   10.720   10.720   0.000   0.000
0.01125   0.00325   293.090   1137.797   268.000   268.000   10.720   10.720   0.000   0.000
0.01375   0.00325   293.134   1137.797   268.000   268.000   10.720   10.720   0.000   0.000
0.01625   0.00325   293.198   1137.797   268.000   268.000   10.720   10.720   0.000   0.000
0.01875   0.00325   293.288   1137.797   268.000   268.000   10.720   10.720   0.000   0.000
0.02125   0.00325   293.412   1137.797   268.000   268.000   10.720   10.720   0.000   0.000
0.02375   0.00325   293.581   1137.797   268.000   268.000   10.720   10.720   0.000   0.000
0.02625   0.00325   293.806   1137.797   268.000   268.000   10.720   10.720   0.000   0.000
0.02875   0.00325   294.100   1137.797   268.000   268.000   10.720   10.720   0.000   0.000
0.03125   0.00325   294.479   1137.797   268.000   268.000   10.720   10.720   0.000   0.000
0.03375   0.00325   294.956   1137.797   268.000   268.000   10.720   10.720   0.000   0.000
0.03625   0.00325   295.550   1137.797   268.000   268.000   10.720   10.720   0.000   0.000
0.03875   0.00325   296.279   1137.797   268.000   268.000   10.720   10.720   0.000   0.000
0.04125   0.00325   297.162   1137.797   268.000   268.000   10.720   10.720   0.000   0.000
0.04375   0.00325   298.216   1137.797   268.000   268.000   10.720   10.720   0.000   0.000
0.04625   0.00325   299.463   1137.797   268.000   268.000   10.720   10.720   0.000   0.000
0.04875   0.00325   300.930   1137.797   268.000   268.000   10.720   0.000   0.000   16.275
0.00125   0.00275   293.024   1137.797   268.000   268.000   0.000   10.720   0.000   0.000
0.00375   0.00275   293.029   1137.797   268.000   268.000   10.720   10.720   0.000   0.000
0.00625   0.00275   293.041   1137.797   268.000   268.000   10.720   10.720   0.000   0.000
0.00875   0.00275   293.060   1137.797   268.000   268.000   10.720   10.720   0.000   0.000
0.01125   0.00275   293.090   1137.797   268.000   268.000   10.720   10.720   0.000   0.000
0.01375   0.00275   293.134   1137.797   268.000   268.000   10.720   10.720   0.000   0.000
0.01625   0.00275   293.198   1137.797   268.000   268.000   10.720   10.720   0.000   0.000
0.01875   0.00275   293.288   1137.797   268.000   268.000   10.720   10.720   0.000   0.000
0.02125   0.00275   293.413   1137.797   268.000   268.000   10.720   10.720   0.000   0.000
0.02375   0.00275   293.581   1137.797   268.000   268.000   10.720   10.720   0.000   0.000
0.02625   0.00275   293.806   1137.797   268.000   268.000   10.720   10.720   0.000   0.000
0.02875   0.00275   294.100   1137.797   268.000   268.000   10.720   10.720   0.000   0.000
0.03125   0.00275   294.478   1137.797   268.000   268.000   10.720   10.720   0.000   0.000
0.03375   0.00275   294.956   1137.797   268.000   268.000   10.720   10.720   0.000   0.000
0.03625   0.00275   295.550   1137.797   268.000   268.000   10.720   10.720   0.000   0.000
0.03875   0.00275   296.279   1137.797   268.000   268.000   10.720   10.720   0.000   0.000
0.04125   0.00275   297.162   1137.797   268.000   268.000   10.720   10.720   0.000   0.000
0.04375   0.00275   298.217   1137.797   268.000   268.000   10.720   10.720   0.000   0.000
0.04625   0.00275   299.461   1137.797   268.000   268.000   10.720   10.720   0.000   0.000
0.04875   0.00275   300.907   1137.797   268.000   268.000   10.720   0.000   0.000   16.275
0.00125   0.00225   293.024   1137.797   268.000   268.000   0.000   10.720   0.000   0.000
0.00375   0.00225   293.029   1137.797   268.000   268.000   10.720   10.720   0.000   0.000
0.00625   0.00225   293.041   1137.797   268.000   268.000   10.720   10.720   0.000   0.000
0.00875   0.00225   293.060   1137.797   268.000   268.000   10.720   10.720   0.000   0.000
0.01125   0.00225   293.090   1137.797   268.000   268.000   10.720   10.720   0.000   0.000
0.01375   0.00225   293.134   1137.797   268.000   268.000   10.720   10.720   0.000   0.000
0.01625   0.00225   293.198   1137.797   268.000   268.000   10.720   10.720   0.000   0.000
0.01875   0.00225   293.288   1137.797   268.000   268.000   10.720   10.720   0.000   0.000
0.02125   0.00225   293.413   1137.797   268.000   268.000   10.720   10.720   0.000   0.000
0.02375   0.00225   293.581   1137.797   268.000   268.000   10.720   10.720   0.000   0.000
0.02625   0.00225   293.806   1137.797   268.000   268.000   10.720   10.720   0.000   0.000
0.02875   0.00225   294.100   1137.797   268.000   268.000   10.720   10.720   0.000   0.000
0.03125   0.00225   294.478   1137.797   268.000   268.000   10.720   10.720   0.000   0.000
0.03375   0.00225   294.955   1137.797   268.000   268.000   10.720   10.720   0.000   0.000
0.03625   0.00225   295.550   1137.797   268.000   268.000   10.720   10.720   0.000   0.000
0.03875   0.00225   296.279   1137.797   268.000   268.000   10.720   10.720   0.000   0.000
0.04125   0.00225   297.163   1137.797   268.000   268.000   10.720   10.720   0.000   0.000
0.04375   0.00225   298.217   1137.797   268.000   268.000   10.720   10.720   0.000   0.000
0.04625   0.00225   299.458   1137.797   268.000   268.000   10.720   10.720   0.000   0.000
0.04875   0.00225   300.888   1137.797   268.000   268.000   10.720   0.000   0.000   16.275
0.00125   0.00175   293.024   1137.797   268.000   268.000   0.000   10.720   0.000   0.000
0.00375   0.00175   293.029   1137.797   268.000   268.000   10.720   10.720   0.000   0.000
0.00625   0.00175   293.041   1137.797   268.000   268.000   10.720   10.720   0.000   0.000
0.00875   0.00175   293.060   1137.797   268.000   268.000   10.720   10.720   0.000   0.000
0.01125   0.00175   293.090   1137.797   268.000   268.000   10.720   10.720   0.000   0.000
0.01375   0.00175   293.135   1137.797   268.000   268.000   10.720   10.720   0.000   0.000
0.01625   0.00175   293.198   1137.797   268.000   268.000   10.720   10.720   0.000   0.000
0.01875   0.00175   293.288   1137.797   268.000   268.000   10.720   10.720   0.000   0.000
0.02125   0.00175   293.413   1137.797   268.000   268.000   10.720   10.720   0.000   0.000