VARIABLES = X, Y, T, ap,an,as,aw,ae,sp,su
ZONE I=20,J=20, F=POINT,t="22.676"
0.00125   0.00975   297.504   1137.797   0.000   268.000   0.000   10.720   0.000   -0.003
0.00375   0.00975   297.728   1137.797   0.000   268.000   10.720   10.720   0.000   -0.004
0.00625   0.00975   298.181   1137.797   0.000   268.000   10.720   10.720   0.000   -0.004
0.00875   0.00975   298.874   1137.797   0.000   268.000   10.720   10.720   0.000   -0.004
0.01125   0.00975   299.821   1137.797   0.000   268.000   10.720   10.720   0.000   -0.005
0.01375   0.00975   301.043   1137.797   0.000   268.000   10.720   10.720   0.000   -0.006
0.01625   0.00975   302.563   1137.797   0.000   268.000   10.720   10.720   0.000   -0.007
0.01875   0.00975   304.409   1137.797   0.000   268.000   10.720   10.720   0.000   -0.009
0.02125   0.00975   306.614   1137.797   0.000   268.000   10.720   10.720   0.000   -0.010
0.02375   0.00975   309.213   1137.797   0.000   268.000   10.720   10.720   0.000   -0.012
0.02625   0.00975   312.251   1137.797   0.000   268.000   10.720   10.720   0.000   -0.014
0.02875   0.00975   315.814   1137.797   0.000   268.000   10.720   10.720   0.000   -0.017
0.03125   0.00975   320.322   1137.797   0.000   268.000   10.720   10.720   0.000   81.089
0.03375   0.00975   323.997   1137.797   0.000   268.000   10.720   10.720   0.000   81.031
0.03625   0.00975   327.258   1137.797   0.000   268.000   10.720   10.720   0.000   80.977
0.03875   0.00975   330.186   1137.797   0.000   268.000   10.720   10.720   0.000   80.928
0.04125   0.00975   332.817   1137.797   0.000   268.000   10.720   10.720   0.000   80.883
0.04375   0.00975   335.178   1137.797   0.000   268.000   10.720   10.720   0.000   80.841
0.04625   0.00975   337.282   1137.797   0.000   268.000   10.720   10.720   0.000   80.803
0.04875   0.00975   339.117   1137.797   0.000   268.000   10.720   0.000   0.000   96.930
0.00125   0.00925   297.502   1137.797   268.000   268.000   0.000   10.720   0.000   0.000
0.00375   0.00925   297.727   1137.797   268.000   268.000   10.720   10.720   0.000   0.000
0.00625   0.00925   298.180   1137.797   268.000   268.000   10.720   10.720   0.000   0.000
0.00875   0.00925   298.873   1137.797   268.000   268.000   10.720   10.720   0.000   0.000
0.01125   0.00925   299.820   1137.797   268.000   268.000   10.720   10.720   0.000   0.000
0.01375   0.00925   301.041   1137.797   268.000   268.000   10.720   10.720   0.000   0.000
0.01625   0.00925   302.561   1137.797   268.000   268.000   10.720   10.720   0.000   0.000
0.01875   0.00925   304.407   1137.797   268.000   268.000   10.720   10.720   0.000   0.000
0.02125   0.00925   306.611   1137.797   268.000   268.000   10.720   10.720   0.000   0.000
0.02375   0.00925   309.209   1137.797   268.000   268.000   10.720   10.720   0.000   0.000
0.02625   0.00925   312.245   1137.797   268.000   268.000   10.720   10.720   0.000   0.000
0.02875   0.00925   315.793   1137.797   268.000   268.000   10.720   10.720   0.000   0.000
0.03125   0.00925   320.070   1137.797   268.000   268.000   10.720   10.720   0.000   0.000
0.03375   0.00925   323.730   1137.797   268.000   268.000   10.720   10.720   0.000   0.000
0.03625   0.00925   326.989   1137.797   268.000   268.000   10.720   10.720   0.000   0.000
0.03875   0.00925   329.916   1137.797   268.000   268.000   10.720   10.720   0.000   0.000
0.04125   0.00925   332.547   1137.797   268.000   268.000   10.720   10.720   0.000   0.000
0.04375   0.00925   334.908   1137.797   268.000   268.000   10.720   10.720   0.000   0.000
0.04625   0.00925   337.013   1137.797   268.000   268.000   10.720   10.720   0.000   0.000
0.04875   0.00925   338.850   1137.797   268.000   268.000   10.720   0.000   0.000   16.162
0.00125   0.00875   297.500   1137.797   268.000   268.000   0.000   10.720   0.000   0.000
0.00375   0.00875   297.724   1137.797   268.000   268.000   10.720   10.720   0.000   0.000
0.00625   0.00875   298.177   1137.797   268.000   268.000   10.720   10.720   0.000   0.000
0.00875   0.00875   298.870   1137.797   268.000   268.000   10.720   10.720   0.000   0.000
0.01125   0.00875   299.817   1137.797   268.000   268.000   10.720   10.720   0.000   0.000
0.01375   0.00875   301.038   1137.797   268.000   268.000   10.720   10.720   0.000   0.000
0.01625   0.00875   302.557   1137.797   268.000   268.000   10.720   10.720   0.000   0.000
0.01875   0.00875   304.402   1137.797   268.000   268.000   10.720   10.720   0.000   0.000
0.02125   0.00875   306.605   1137.797   268.000   268.000   10.720   10.720   0.000   0.000
0.02375   0.00875   309.202   1137.797   268.000   268.000   10.720   10.720   0.000   0.000
0.02625   0.00875   312.234   1137.797   268.000   268.000   10.720   10.720   0.000   0.000
0.02875   0.00875   315.759   1137.797   268.000   268.000   10.720   10.720   0.000   0.000
0.03125   0.00875   319.860   1137.797   268.000   268.000   10.720   10.720   0.000   0.000
0.03375   0.00875   323.497   1137.797   268.000   268.000   10.720   10.720   0.000   0.000
0.03625   0.00875   326.752   1137.797   268.000   268.000   10.720   10.720   0.000   0.000
0.03875   0.00875   329.678   1137.797   268.000   268.000   10.720   10.720   0.000   0.000
0.04125   0.00875   332.309   1137.797   268.000   268.000   10.720   10.720   0.000   0.000
0.04375   0.00875   334.670   1137.797   268.000   268.000   10.720   10.720   0.000   0.000
0.04625   0.00875   336.776   1137.797   268.000   268.000   10.720   10.720   0.000   0.000
0.04875   0.00875   338.619   1137.797   268.000   268.000   10.720   0.000   0.000   16.163
0.00125   0.00825   297.497   1137.797   268.000   268.000   0.000   10.720   0.000   0.000
0.00375   0.00825   297.721   1137.797   268.000   268.000   10.720   10.720   0.000   0.000
0.00625   0.00825   298.173   1137.797   268.000   268.000   10.720   10.720   0.000   0.000
0.00875   0.00825   298.866   1137.797   268.000   268.000   10.720   10.720   0.000   0.000
0.01125   0.00825   299.812   1137.797   268.000   268.000   10.720   10.720   0.000   0.000
0.01375   0.00825   301.032   1137.797   268.000   268.000   10.720   10.720   0.000   0.000
0.01625   0.00825   302.550   1137.797   268.000   268.000   10.720   10.720   0.000   0.000
0.01875   0.00825   304.395   1137.797   268.000   268.000   10.720   10.720   0.000   0.000
0.02125   0.00825   306.597   1137.797   268.000   268.000   10.720   10.720   0.000   0.000
0.02375   0.00825   309.192   1137.797   268.000   268.000   10.720   10.720   0.000   0.000
0.02625   0.00825   312.218   1137.797   268.000   268.000   10.720   10.720   0.000   0.000
0.02875   0.00825   315.718   1137.797   268.000   268.000   10.720   10.720   0.000   0.000
0.03125   0.00825   319.686   1137.797   268.000   268.000   10.720   10.720   0.000   0.000
0.03375   0.00825   323.298   1137.797   268.000   268.000   10.720   10.720   0.000   0.000
0.03625   0.00825   326.547   1137.797   268.000   268.000   10.720   10.720   0.000   0.000
0.03875   0.00825   329.471   1137.797   268.000   268.000   10.720   10.720   0.000   0.000
0.04125   0.00825   332.102   1137.797   268.000   268.000   10.720   10.720   0.000   0.000
0.04375   0.00825   334.463   1137.797   268.000   268.000   10.720   10.720   0.000   0.000
0.04625   0.00825   336.571   1137.797   268.000   268.000   10.720   10.720   0.000   0.000
0.04875   0.00825   338.423   1137.797   268.000   268.000   10.720   0.000   0.000   16.163
0.00125   0.00775   297.492   1137.797   268.000   268.000   0.000   10.720   0.000   0.000
0.00375   0.00775   297.716   1137.797   268.000   268.000   10.720   10.720   0.000   0.000
0.00625   0.00775   298.168   1137.797   268.000   268.000   10.720   10.720   0.000   0.000
0.00875   0.00775   298.860   1137.797   268.000   268.000   10.720   10.720   0.000   0.000
0.01125   0.00775   299.805   1137.797   268.000   268.000   10.720   10.720   0.000   0.000
0.01375   0.00775   301.025   1137.797   268.000   268.000   10.720   10.720   0.000   0.000
0.01625   0.00775   302.542   1137.797   268.000   268.000   10.720   10.720   0.000   0.000
0.01875   0.00775   304.385   1137.797   268.000   268.000   10.720   10.720   0.000   0.000
0.02125   0.00775   306.586   1137.797   268.000   268.000   10.720   10.720   0.000   0.000
0.02375   0.00775   309.179   1137.797   268.000   268.000   10.720   10.720   0.000   0.000
0.02625   0.00775   312.199   1137.797   268.000   268.000   10.720   10.720   0.000   0.000
0.02875   0.00775   315.674   1137.797   268.000   268.000   10.720   10.720   0.000   0.000
0.03125   0.00775   319.544   1137.797   268.000   268.000   10.720   10.720   0.000   0.000
0.03375   0.00775   323.131   1137.797   268.000   268.000   10.720   10.720   0.000   0.000
0.03625   0.00775   326.375   1137.797   268.000   268.000   10.720   10.720   0.000   0.000
0.03875   0.00775   329.297   1137.797   268.000   268.000   10.720   10.720   0.000   0.000
0.04125   0.00775   331.926   1137.797   268.000   268.000   10.720   10.720   0.000   0.000
0.04375   0.00775   334.287   1137.797   268.000   268.000   10.720   10.720   0.000   0.000
0.04625   0.00775   336.399   1137.797   268.000   268.000   10.720   10.720   0.000   0.000
0.04875   0.00775   338.263   1137.797   268.000   268.000   10.720   0.000   0.000   16.164
0.00125   0.00725   297.486   1137.797   268.000   268.000   0.000   10.720   0.000   0.000
0.00375   0.00725   297.710   1137.797   268.000   268.000   10.720   10.720   0.000   0.000
0.00625   0.00725   298.162   1137.797   268.000   268.000   10.720   10.720   0.000   0.000
0.00875   0.00725   298.853   1137.797   268.000   268.000   10.720   10.720   0.000   0.000
0.01125   0.00725   299.798   1137.797   268.000   268.000   10.720   10.720   0.000   0.000
0.01375   0.00725   301.016   1137.797   268.000   268.000   10.720   10.720   0.000   0.000
0.01625   0.00725   302.532   1137.797   268.000   268.000   10.720   10.720   0.000   0.000
0.01875   0.00725   304.373   1137.797   268.000   268.000   10.720   10.720   0.000   0.000
0.02125   0.00725   306.572   1137.797   268.000   268.000   10.720   10.720   0.000   0.000
0.02375   0.00725   309.162   1137.797   268.000   268.000   10.720   10.720   0.000   0.000
0.02625   0.00725   312.177   1137.797   268.000   268.000   10.720   10.720   0.000   0.000
0.02875   0.00725   315.631   1137.797   268.000   268.000   10.720   10.720   0.000   0.000
0.03125   0.00725   319.430   1137.797   268.000   268.000   10.720   10.720   0.000   0.000
0.03375   0.00725   322.997   1137.797   268.000   268.000   10.720   10.720   0.000   0.000
0.03625   0.00725   326.235   1137.797   268.000   268.000   10.720   10.720   0.000   0.000
0.03875   0.00725   329.155   1137.797   268.000   268.000   10.720   10.720   0.000   0.000
0.04125   0.00725   331.783   1137.797   268.000   268.000   10.720   10.720   0.000   0.000
0.04375   0.00725   334.143   1137.797   268.000   268.000   10.720   10.720   0.000   0.000
0.04625   0.00725   336.258   1137.797   268.000   268.000   10.720   10.720   0.000   0.000
0.04875   0.00725   338.139   1137.797   268.000   268.000   10.720   0.000   0.000   16.164
0.00125   0.00675   297.479   1137.797   268.000   268.000   0.000   10.720   0.000   0.000
0.00375   0.00675   297.702   1137.797   268.000   268.000   10.720   10.720   0.000   0.000
0.00625   0.00675   298.154   1137.797   268.000   268.000   10.720   10.720   0.000   0.000
0.00875   0.00675   298.844   1137.797   268.000   268.000   10.720   10.720   0.000   0.000
0.01125   0.00675   299.788   1137.797   268.000   268.000   10.720   10.720   0.000   0.000
0.01375   0.00675   301.005   1137.797   268.000   268.000   10.720   10.720   0.000   0.000
0.01625   0.00675   302.519   1137.797   268.000   268.000   10.720   10.720   0.000   0.000
0.01875   0.00675   304.359   1137.797   268.000   268.000   10.720   10.720   0.000   0.000
0.02125   0.00675   306.555   1137.797   268.000   268.000   10.720   10.720   0.000   0.000
0.02375   0.00675   309.143   1137.797   268.000   268.000   10.720   10.720   0.000   0.000
0.02625   0.00675   312.152   1137.797   268.000   268.000   10.720   10.720   0.000   0.000
0.02875   0.00675   315.590   1137.797   268.000   268.000   10.720   10.720   0.000   0.000
0.03125   0.00675   319.343   1137.797   268.000   268.000   10.720   10.720   0.000   0.000
0.03375   0.00675   322.894   1137.797   268.000   268.000   10.720   10.720   0.000   0.000
0.03625   0.00675   326.127   1137.797   268.000   268.000   10.720   10.720   0.000   0.000
0.03875   0.00675   329.044   1137.797   268.000   268.000   10.720   10.720   0.000   0.000
0.04125   0.00675   331.670   1137.797   268.000   268.000   10.720   10.720   0.000   0.000
0.04375   0.00675   334.030   1137.797   268.000   268.000   10.720   10.720   0.000   0.000
0.04625   0.00675   336.149   1137.797   268.000   268.000   10.720   10.720   0.000   0.000
0.04875   0.00675   338.052   1137.797   268.000   268.000   10.720   0.000   0.000   16.165
0.00125   0.00625   297.471   1137.797   268.000   2.085   0.000   10.720   0.000   0.000
0.00375   0.00625   297.694   1137.797   268.000   2.085   10.720   10.720   0.000   0.000
0.00625   0.00625   298.145   1137.797   268.000   2.085   10.720   10.720   0.000   0.000
0.00875   0.00625   298.834   1137.797   268.000   2.085   10.720   10.720   0.000   0.000
0.01125   0.00625   299.777   1137.797   268.000   2.085   10.720   10.720   0.000   0.000
0.01375   0.00625   300.992   1137.797   268.000   2.085   10.720   10.720   0.000   0.000
0.01625   0.00625   302.505   1137.797   268.000   2.085   10.720   10.720   0.000   0.000
0.01875   0.00625   304.342   1137.797   268.000   2.085   10.720   10.720   0.000   0.000
0.02125   0.00625   306.536   1137.797   268.000   2.085   10.720   10.720   0.000   0.000
0.02375   0.00625   309.120   1137.797   268.000   2.085   10.720   10.720   0.000   0.000
0.02625   0.00625   312.125   1137.797   268.000   2.085   10.720   10.720   0.000   0.000
0.02875   0.00625   315.553   1137.797   268.000   2.085   10.720   10.720   0.000   0.000
0.03125   0.00625   319.281   1137.797   268.000   2.085   10.720   10.720   0.000   0.000
0.03375   0.00625   322.822   1137.797   268.000   2.085   10.720   10.720   0.000   0.000
0.03625   0.00625   326.051   1137.797   268.000   2.085   10.720   10.720   0.000   0.000
0.03875   0.00625   328.965   1137.797   268.000   2.085   10.720   10.720   0.000   0.000
0.04125   0.00625   331.590   1137.797   268.000   2.085   10.720   10.720   0.000   0.000
0.04375   0.00625   333.948   1137.797   268.000   2.085   10.720   10.720   0.000   0.000
0.04625   0.00625   336.069   1137.797   268.000   2.085   10.720   10.720   0.000   0.000
0.04875   0.00625   338.002   1137.797   268.000   2.085   10.720   0.000   0.000   16.165
0.00125   0.00575   296.273   686.719   2.085   1.046   0.000   0.042   0.000   0.000
0.00375   0.00575   296.452   686.719   2.085   1.046   0.042   0.042   0.000   0.000
0.00625   0.00575   296.815   686.719   2.085   1.046   0.042   0.042   0.000   0.000
0.00875   0.00575   297.373   686.719   2.085   1.046   0.042   0.042   0.000   0.000
0.01125   0.00575   298.138   686.719   2.085   1.046   0.042   0.042   0.000   0.000
0.01375   0.00575   299.131   686.719   2.085   1.046   0.042   0.042   0.000   0.000
0.01625   0.00575   300.373   686.719   2.085   1.046   0.042   0.042   0.000   0.000
0.01875   0.00575   301.893   686.719   2.085   1.046   0.042   0.042   0.000   0.000
0.02125   0.00575   303.720   686.719   2.085   1.046   0.042   0.042   0.000   0.000
0.02375   0.00575   305.888   686.719   2.085   1.046   0.042   0.042   0.000   0.000
0.02625   0.00575   308.426   686.719   2.085   1.046   0.042   0.042   0.000   0.000
0.02875   0.00575   311.339   686.719   2.085   1.046   0.042   0.042   0.000   0.000
0.03125   0.00575   314.519   686.719   2.085   1.046   0.042   0.042   0.000   0.000
0.03375   0.00575   317.562   686.719   2.085   1.046   0.042   0.042   0.000   0.000
0.03625   0.00575   320.358   686.719   2.085   1.046   0.042   0.042   0.000   0.000
0.03875   0.00575   322.908   686.719   2.085   1.046   0.042   0.042   0.000   0.000
0.04125   0.00575   325.238   686.719   2.085   1.046   0.042   0.042   0.000   0.000
0.04375   0.00575   327.388   686.719   2.085   1.046   0.042   0.042   0.000   0.000
0.04625   0.00575   329.624   686.719   2.085   1.046   0.042   0.042   0.000   0.000
0.04875   0.00575   336.625   686.719   2.085   1.046   0.042   0.000   0.000   6.064
0.00125   0.00525   294.851   686.719   1.046   1.046   0.000   0.042   0.000   0.000
0.00375   0.00525   294.967   686.719   1.046   1.046   0.042   0.042   0.000   0.000
0.00625   0.00525   295.205   686.719   1.046   1.046   0.042   0.042   0.000   0.000
0.00875   0.00525   295.571   686.719   1.046   1.046   0.042   0.042   0.000   0.000
0.01125   0.00525   296.077   686.719   1.046   1.046   0.042   0.042   0.000   0.000
0.01375   0.00525   296.738   686.719   1.046   1.046   0.042   0.042   0.000   0.000
0.01625   0.00525   297.575   686.719   1.046   1.046   0.042   0.042   0.000   0.000
0.01875   0.00525   298.610   686.719   1.046   1.046   0.042   0.042   0.000   0.000
0.02125   0.00525   299.869   686.719   1.046   1.046   0.042   0.042   0.000   0.000
0.02375   0.00525   301.379   686.719   1.046   1.046   0.042   0.042   0.000   0.000
0.02625   0.00525   303.166   686.719   1.046   1.046   0.042   0.042   0.000   0.000
0.02875   0.00525   305.238   686.719   1.046   1.046   0.042   0.042   0.000   0.000
0.03125   0.00525   307.519   686.719   1.046   1.046   0.042   0.042   0.000   0.000
0.03375   0.00525   309.743   686.719   1.046   1.046   0.042   0.042   0.000   0.000
0.03625   0.00525   311.834   686.719   1.046   1.046   0.042   0.042   0.000   0.000
0.03875   0.00525   313.799   686.719   1.046   1.046   0.042   0.042   0.000   0.000
0.04125   0.00525   315.661   686.719   1.046   1.046   0.042   0.042   0.000   0.000
0.04375   0.00525   317.478   686.719   1.046   1.046   0.042   0.042   0.000   0.000
0.04625   0.00525   319.826   686.719   1.046   1.046   0.042   0.042   0.000   0.000
0.04875   0.00525   331.642   686.719   1.046   1.046   0.042   0.000   0.000   6.070
0.00125   0.00475   294.068   686.719   1.046   1.046   0.000   0.042   0.000   0.000
0.00375   0.00475   294.143   686.719   1.046   1.046   0.042   0.042   0.000   0.000
0.00625   0.00475   294.295   686.719   1.046   1.046   0.042   0.042   0.000   0.000
0.00875   0.00475   294.531   686.719   1.046   1.046   0.042   0.042   0.000   0.000
0.01125   0.00475   294.858   686.719   1.046   1.046   0.042   0.042   0.000   0.000
0.01375   0.00475   295.289   686.719   1.046   1.046   0.042   0.042   0.000   0.000
0.01625   0.00475   295.838   686.719   1.046   1.046   0.042   0.042   0.000   0.000
0.01875   0.00475   296.522   686.719   1.046   1.046   0.042   0.042   0.000   0.000
0.02125   0.00475   297.358   686.719   1.046   1.046   0.042   0.042   0.000   0.000
0.02375   0.00475   298.369   686.719   1.046   1.046   0.042   0.042   0.000   0.000
0.02625   0.00475   299.574   686.719   1.046   1.046   0.042   0.042   0.000   0.000
0.02875   0.00475   300.980   686.719   1.046   1.046   0.042   0.042   0.000   0.000
0.03125   0.00475   302.545   686.719   1.046   1.046   0.042   0.042   0.000   0.000
0.03375   0.00475   304.121   686.719   1.046   1.046   0.042   0.042   0.000   0.000
0.03625   0.00475   305.664   686.719   1.046   1.046   0.042   0.042   0.000   0.000
0.03875   0.00475   307.182   686.719   1.046   1.046   0.042   0.042   0.000   0.000
0.04125   0.00475   308.696   686.719   1.046   1.046   0.042   0.042   0.000   0.000
0.04375   0.00475   310.258   686.719   1.046   1.046   0.042   0.042   0.000   0.000
0.04625   0.00475   312.438   686.719   1.046   1.046   0.042   0.042   0.000   0.000
0.04875   0.00475   324.178   686.719   1.046   1.046   0.042   0.000   0.000   6.079
0.00125   0.00425   293.705   686.719   1.046   2.085   0.000   0.042   0.000   0.000
0.00375   0.00425   293.754   686.719   1.046   2.085   0.042   0.042   0.000   0.000
0.00625   0.00425   293.853   686.719   1.046   2.085   0.042   0.042   0.000   0.000
0.00875   0.00425   294.007   686.719   1.046   2.085   0.042   0.042   0.000   0.000
0.01125   0.00425   294.220   686.719   1.046   2.085   0.042   0.042   0.000   0.000
0.01375   0.00425   294.499   686.719   1.046   2.085   0.042   0.042   0.000   0.000
0.01625   0.00425   294.852   686.719   1.046   2.085   0.042   0.042   0.000   0.000
0.01875   0.00425   295.290   686.719   1.046   2.085   0.042   0.042   0.000   0.000
0.02125   0.00425   295.823   686.719   1.046   2.085   0.042   0.042   0.000   0.000
0.02375   0.00425   296.463   686.719   1.046   2.085   0.042   0.042   0.000   0.000
0.02625   0.00425   297.221   686.719   1.046   2.085   0.042   0.042   0.000   0.000
0.02875   0.00425   298.104   686.719   1.046   2.085   0.042   0.042   0.000   0.000
0.03125   0.00425   299.102   686.719   1.046   2.085   0.042   0.042   0.000   0.000
0.03375   0.00425   300.169   686.719   1.046   2.085   0.042   0.042   0.000   0.000
0.03625   0.00425   301.294   686.719   1.046   2.085   0.042   0.042   0.000   0.000
0.03875   0.00425   302.485   686.719   1.046   2.085   0.042   0.042   0.000   0.000
0.04125   0.00425   303.751   686.719   1.046   2.085   0.042   0.042   0.000   0.000
0.04375   0.00425   305.119   686.719   1.046   2.085   0.042   0.042   0.000   0.000
0.04625   0.00425   306.843   686.719   1.046   2.085   0.042   0.042   0.000   0.000
0.04875   0.00425   313.603   686.719   1.046   2.085   0.042   0.000   0.000   6.091
0.00125   0.00375   293.669   1137.797   2.085   268.000   0.000   10.720   0.000   0.000
0.00375   0.00375   293.710   1137.797   2.085   268.000   10.720   10.720   0.000   0.000
0.00625   0.00375   293.794   1137.797   2.085   268.000   10.720   10.720   0.000   0.000
0.00875   0.00375   293.923   1137.797   2.085   268.000   10.720   10.720   0.000   0.000
0.01125   0.00375   294.099   1137.797   2.085   268.000   10.720   10.720   0.000   0.000
0.01375   0.00375   294.328   1137.797   2.085   268.000   10.720   10.720   0.000   0.000
0.01625   0.00375   294.615   1137.797   2.085   268.000   10.720   10.720   0.000   0.000
0.01875   0.00375   294.966   1137.797   2.085   268.000   10.720   10.720   0.000   0.000
0.02125   0.00375   295.386   1137.797   2.085   268.000   10.720   10.720   0.000   0.000
0.02375   0.00375   295.883   1137.797   2.085   268.000   10.720   10.720   0.000   0.000
0.02625   0.00375   296.462   1137.797   2.085   268.000   10.720   10.720   0.000   0.000
0.02875   0.00375   297.129   1137.797   2.085   268.000   10.720   10.720   0.000   0.000
0.03125   0.00375   297.890   1137.797   2.085   268.000   10.720   10.720   0.000   0.000
0.03375   0.00375   298.747   1137.797   2.085   268.000   10.720   10.720   0.000   0.000
0.03625   0.00375   299.705   1137.797   2.085   268.000   10.720   10.720   0.000   0.000
0.03875   0.00375   300.769   1137.797   2.085   268.000   10.720   10.720   0.000   0.000
0.04125   0.00375   301.944   1137.797   2.085   268.000   10.720   10.720   0.000   0.000
0.04375   0.00375   303.237   1137.797   2.085   268.000   10.720   10.720   0.000   0.000
0.04625   0.00375   304.658   1137.797   2.085   268.000   10.720   10.720   0.000   0.000
0.04875   0.00375   306.249   1137.797   2.085   268.000   10.720   0.000   0.000   16.261
0.00125   0.00325   293.669   1137.797   268.000   268.000   0.000   10.720   0.000   0.000
0.00375   0.00325   293.710   1137.797   268.000   268.000   10.720   10.720   0.000   0.000
0.00625   0.00325   293.794   1137.797   268.000   268.000   10.720   10.720   0.000   0.000
0.00875   0.00325   293.922   1137.797   268.000   268.000   10.720   10.720   0.000   0.000
0.01125   0.00325   294.098   1137.797   268.000   268.000   10.720   10.720   0.000   0.000
0.01375   0.00325   294.327   1137.797   268.000   268.000   10.720   10.720   0.000   0.000
0.01625   0.00325   294.614   1137.797   268.000   268.000   10.720   10.720   0.000   0.000
0.01875   0.00325   294.964   1137.797   268.000   268.000   10.720   10.720   0.000   0.000
0.02125   0.00325   295.383   1137.797   268.000   268.000   10.720   10.720   0.000   0.000
0.02375   0.00325   295.879   1137.797   268.000   268.000   10.720   10.720   0.000   0.000
0.02625   0.00325   296.457   1137.797   268.000   268.000   10.720   10.720   0.000   0.000
0.02875   0.00325   297.123   1137.797   268.000   268.000   10.720   10.720   0.000   0.000
0.03125   0.00325   297.882   1137.797   268.000   268.000   10.720   10.720   0.000   0.000
0.03375   0.00325   298.737   1137.797   268.000   268.000   10.720   10.720   0.000   0.000
0.03625   0.00325   299.694   1137.797   268.000   268.000   10.720   10.720   0.000   0.000
0.03875   0.00325   300.757   1137.797   268.000   268.000   10.720   10.720   0.000   0.000
0.04125   0.00325   301.932   1137.797   268.000   268.000   10.720   10.720   0.000   0.000
0.04375   0.00325   303.223   1137.797   268.000   268.000   10.720   10.720   0.000   0.000
0.04625   0.00325   304.641   1137.797   268.000   268.000   10.720   10.720   0.000   0.000
0.04875   0.00325   306.201   1137.797   268.000   268.000   10.720   0.000   0.000   16.261
0.00125   0.00275   293.668   1137.797   268.000   268.000   0.000   10.720   0.000   0.000
0.00375   0.00275   293.710   1137.797   268.000   268.000   10.720   10.720   0.000   0.000
0.00625   0.00275   293.793   1137.797   268.000   268.000   10.720   10.720   0.000   0.000
0.00875   0.00275   293.921   1137.797   268.000   268.000   10.720   10.720   0.000   0.000
0.01125   0.00275   294.098   1137.797   268.000   268.000   10.720   10.720   0.000   0.000
0.01375   0.00275   294.326   1137.797   268.000   268.000   10.720   10.720   0.000   0.000
0.01625   0.00275   294.612   1137.797   268.000   268.000   10.720   10.720   0.000   0.000
0.01875   0.00275   294.962   1137.797   268.000   268.000   10.720   10.720   0.000   0.000
0.02125   0.00275   295.381   1137.797   268.000   268.000   10.720   10.720   0.000   0.000
0.02375   0.00275   295.875   1137.797   268.000   268.000   10.720   10.720   0.000   0.000
0.02625   0.00275   296.452   1137.797   268.000   268.000   10.720   10.720   0.000   0.000
0.02875   0.00275   297.117   1137.797   268.000   268.000   10.720   10.720   0.000   0.000
0.03125   0.00275   297.875   1137.797   268.000   268.000   10.720   10.720   0.000   0.000
0.03375   0.00275   298.729   1137.797   268.000   268.000   10.720   10.720   0.000   0.000
0.03625   0.00275   299.685   1137.797   268.000   268.000   10.720   10.720   0.000   0.000
0.03875   0.00275   300.747   1137.797   268.000   268.000   10.720   10.720   0.000   0.000
0.04125   0.00275   301.921   1137.797   268.000   268.000   10.720   10.720   0.000   0.000
0.04375   0.00275   303.212   1137.797   268.000   268.000   10.720   10.720   0.000   0.000
0.04625   0.00275   304.625   1137.797   268.000   268.000   10.720   10.720   0.000   0.000
0.04875   0.00275   306.163   1137.797   268.000   268.000   10.720   0.000   0.000   16.261
0.00125   0.00225   293.668   1137.797   268.000   268.000   0.000   10.720   0.000   0.000
0.00375   0.00225   293.709   1137.797   268.000   268.000   10.720   10.720   0.000   0.000
0.00625   0.00225   293.793   1137.797   268.000   268.000   10.720   10.720   0.000   0.000
0.00875   0.00225   293.921   1137.797   268.000   268.000   10.720   10.720   0.000   0.000
0.01125   0.00225   294.097   1137.797   268.000   268.000   10.720   10.720   0.000   0.000
0.01375   0.00225   294.325   1137.797   268.000   268.000   10.720   10.720   0.000   0.000
0.01625   0.00225   294.611   1137.797   268.000   268.000   10.720   10.720   0.000   0.000
0.01875   0.00225   294.960   1137.797   268.000   268.000   10.720   10.720   0.000   0.000
0.02125   0.00225   295.378   1137.797   268.000   268.000   10.720   10.720   0.000   0.000
0.02375   0.00225   295.872   1137.797   268.000   268.000   10.720   10.720   0.000   0.000
0.02625   0.00225   296.448   1137.797   268.000   268.000   10.720   10.720   0.000   0.000
0.02875   0.00225   297.112   1137.797   268.000   268.000   10.720   10.720   0.000   0.000
0.03125   0.00225   297.869   1137.797   268.000   268.000   10.720   10.720   0.000   0.000
0.03375   0.00225   298.722   1137.797   268.000   268.000   10.720   10.720   0.000   0.000
0.03625   0.00225   299.677   1137.797   268.000   268.000   10.720   10.720   0.000   0.000
0.03875   0.00225   300.739   1137.797   268.000   268.000   10.720   10.720   0.000   0.000
0.04125   0.00225   301.912   1137.797   268.000   268.000   10.720   10.720   0.000   0.000
0.04375   0.00225   303.202   1137.797   268.000   268.000   10.720   10.720   0.000   0.000
0.04625   0.00225   304.611   1137.797   268.000   268.000   10.720   10.720   0.000   0.000
0.04875   0.00225   306.131   1137.797   268.000   268.000   10.720   0.000   0.000   16.262
0.00125   0.00175   293.668   1137.797   268.000   268.000   0.000   10.720   0.000   0.000
0.00375   0.00175   293.709   1137.797   268.000   268.000   10.720   10.720   0.000   0.000
0.00625   0.00175   293.793   1137.797   268.000   268.000   10.720   10.720   0.000   0.000
0.00875   0.00175   293.921   1137.797   268.000   268.000   10.720   10.720   0.000   0.000
0.01125   0.00175   294.097   1137.797   268.000   268.000   10.720   10.720   0.000   0.000
0.01375   0.00175   294.325   1137.797   268.000   268.000   10.720   10.720   0.000   0.000
0.01625   0.00175   294.610   1137.797   268.000   268.000   10.720   10.720   0.000   0.000
0.01875   0.00175   294.959   1137.797   268.000   268.000   10.720   10.720   0.000   0.000
0.02125   0.00175   295.377   1137.797   268.000   268.000   10.720   10.720   0.000   0.000