VARIABLES = X, Y, T, ap,an,as,aw,ae,sp,su
ZONE I=20,J=20, F=POINT,t="12.464"
0.00125   0.00975   293.922   1137.797   0.000   268.000   0.000   10.720   0.000   -0.001
0.00375   0.00975   294.026   1137.797   0.000   268.000   10.720   10.720   0.000   -0.001
0.00625   0.00975   294.240   1137.797   0.000   268.000   10.720   10.720   0.000   -0.001
0.00875   0.00975   294.578   1137.797   0.000   268.000   10.720   10.720   0.000   -0.001
0.01125   0.00975   295.059   1137.797   0.000   268.000   10.720   10.720   0.000   -0.002
0.01375   0.00975   295.711   1137.797   0.000   268.000   10.720   10.720   0.000   -0.002
0.01625   0.00975   296.565   1137.797   0.000   268.000   10.720   10.720   0.000   -0.003
0.01875   0.00975   297.663   1137.797   0.000   268.000   10.720   10.720   0.000   -0.003
0.02125   0.00975   299.050   1137.797   0.000   268.000   10.720   10.720   0.000   -0.005
0.02375   0.00975   300.778   1137.797   0.000   268.000   10.720   10.720   0.000   -0.006
0.02625   0.00975   302.914   1137.797   0.000   268.000   10.720   10.720   0.000   -0.007
0.02875   0.00975   305.564   1137.797   0.000   268.000   10.720   10.720   0.000   -0.009
0.03125   0.00975   309.172   1137.797   0.000   268.000   10.720   10.720   0.000   81.256
0.03375   0.00975   311.984   1137.797   0.000   268.000   10.720   10.720   0.000   81.215
0.03625   0.00975   314.443   1137.797   0.000   268.000   10.720   10.720   0.000   81.179
0.03875   0.00975   316.656   1137.797   0.000   268.000   10.720   10.720   0.000   81.146
0.04125   0.00975   318.682   1137.797   0.000   268.000   10.720   10.720   0.000   81.115
0.04375   0.00975   320.568   1137.797   0.000   268.000   10.720   10.720   0.000   81.086
0.04625   0.00975   322.345   1137.797   0.000   268.000   10.720   10.720   0.000   81.058
0.04875   0.00975   324.014   1137.797   0.000   268.000   10.720   0.000   0.000   97.242
0.00125   0.00925   293.921   1137.797   268.000   268.000   0.000   10.720   0.000   0.000
0.00375   0.00925   294.025   1137.797   268.000   268.000   10.720   10.720   0.000   0.000
0.00625   0.00925   294.239   1137.797   268.000   268.000   10.720   10.720   0.000   0.000
0.00875   0.00925   294.577   1137.797   268.000   268.000   10.720   10.720   0.000   0.000
0.01125   0.00925   295.058   1137.797   268.000   268.000   10.720   10.720   0.000   0.000
0.01375   0.00925   295.710   1137.797   268.000   268.000   10.720   10.720   0.000   0.000
0.01625   0.00925   296.564   1137.797   268.000   268.000   10.720   10.720   0.000   0.000
0.01875   0.00925   297.662   1137.797   268.000   268.000   10.720   10.720   0.000   0.000
0.02125   0.00925   299.048   1137.797   268.000   268.000   10.720   10.720   0.000   0.000
0.02375   0.00925   300.776   1137.797   268.000   268.000   10.720   10.720   0.000   0.000
0.02625   0.00925   302.909   1137.797   268.000   268.000   10.720   10.720   0.000   0.000
0.02875   0.00925   305.543   1137.797   268.000   268.000   10.720   10.720   0.000   0.000
0.03125   0.00925   308.920   1137.797   268.000   268.000   10.720   10.720   0.000   0.000
0.03375   0.00925   311.717   1137.797   268.000   268.000   10.720   10.720   0.000   0.000
0.03625   0.00925   314.174   1137.797   268.000   268.000   10.720   10.720   0.000   0.000
0.03875   0.00925   316.386   1137.797   268.000   268.000   10.720   10.720   0.000   0.000
0.04125   0.00925   318.412   1137.797   268.000   268.000   10.720   10.720   0.000   0.000
0.04375   0.00925   320.298   1137.797   268.000   268.000   10.720   10.720   0.000   0.000
0.04625   0.00925   322.076   1137.797   268.000   268.000   10.720   10.720   0.000   0.000
0.04875   0.00925   323.748   1137.797   268.000   268.000   10.720   0.000   0.000   16.212
0.00125   0.00875   293.921   1137.797   268.000   268.000   0.000   10.720   0.000   0.000
0.00375   0.00875   294.024   1137.797   268.000   268.000   10.720   10.720   0.000   0.000
0.00625   0.00875   294.238   1137.797   268.000   268.000   10.720   10.720   0.000   0.000
0.00875   0.00875   294.576   1137.797   268.000   268.000   10.720   10.720   0.000   0.000
0.01125   0.00875   295.057   1137.797   268.000   268.000   10.720   10.720   0.000   0.000
0.01375   0.00875   295.708   1137.797   268.000   268.000   10.720   10.720   0.000   0.000
0.01625   0.00875   296.562   1137.797   268.000   268.000   10.720   10.720   0.000   0.000
0.01875   0.00875   297.659   1137.797   268.000   268.000   10.720   10.720   0.000   0.000
0.02125   0.00875   299.044   1137.797   268.000   268.000   10.720   10.720   0.000   0.000
0.02375   0.00875   300.771   1137.797   268.000   268.000   10.720   10.720   0.000   0.000
0.02625   0.00875   302.900   1137.797   268.000   268.000   10.720   10.720   0.000   0.000
0.02875   0.00875   305.511   1137.797   268.000   268.000   10.720   10.720   0.000   0.000
0.03125   0.00875   308.712   1137.797   268.000   268.000   10.720   10.720   0.000   0.000
0.03375   0.00875   311.485   1137.797   268.000   268.000   10.720   10.720   0.000   0.000
0.03625   0.00875   313.938   1137.797   268.000   268.000   10.720   10.720   0.000   0.000
0.03875   0.00875   316.149   1137.797   268.000   268.000   10.720   10.720   0.000   0.000
0.04125   0.00875   318.174   1137.797   268.000   268.000   10.720   10.720   0.000   0.000
0.04375   0.00875   320.060   1137.797   268.000   268.000   10.720   10.720   0.000   0.000
0.04625   0.00875   321.839   1137.797   268.000   268.000   10.720   10.720   0.000   0.000
0.04875   0.00875   323.516   1137.797   268.000   268.000   10.720   0.000   0.000   16.212
0.00125   0.00825   293.920   1137.797   268.000   268.000   0.000   10.720   0.000   0.000
0.00375   0.00825   294.023   1137.797   268.000   268.000   10.720   10.720   0.000   0.000
0.00625   0.00825   294.237   1137.797   268.000   268.000   10.720   10.720   0.000   0.000
0.00875   0.00825   294.574   1137.797   268.000   268.000   10.720   10.720   0.000   0.000
0.01125   0.00825   295.055   1137.797   268.000   268.000   10.720   10.720   0.000   0.000
0.01375   0.00825   295.705   1137.797   268.000   268.000   10.720   10.720   0.000   0.000
0.01625   0.00825   296.559   1137.797   268.000   268.000   10.720   10.720   0.000   0.000
0.01875   0.00825   297.655   1137.797   268.000   268.000   10.720   10.720   0.000   0.000
0.02125   0.00825   299.039   1137.797   268.000   268.000   10.720   10.720   0.000   0.000
0.02375   0.00825   300.764   1137.797   268.000   268.000   10.720   10.720   0.000   0.000
0.02625   0.00825   302.887   1137.797   268.000   268.000   10.720   10.720   0.000   0.000
0.02875   0.00825   305.472   1137.797   268.000   268.000   10.720   10.720   0.000   0.000
0.03125   0.00825   308.540   1137.797   268.000   268.000   10.720   10.720   0.000   0.000
0.03375   0.00825   311.288   1137.797   268.000   268.000   10.720   10.720   0.000   0.000
0.03625   0.00825   313.735   1137.797   268.000   268.000   10.720   10.720   0.000   0.000
0.03875   0.00825   315.944   1137.797   268.000   268.000   10.720   10.720   0.000   0.000
0.04125   0.00825   317.969   1137.797   268.000   268.000   10.720   10.720   0.000   0.000
0.04375   0.00825   319.855   1137.797   268.000   268.000   10.720   10.720   0.000   0.000
0.04625   0.00825   321.636   1137.797   268.000   268.000   10.720   10.720   0.000   0.000
0.04875   0.00825   323.321   1137.797   268.000   268.000   10.720   0.000   0.000   16.213
0.00125   0.00775   293.918   1137.797   268.000   268.000   0.000   10.720   0.000   0.000
0.00375   0.00775   294.022   1137.797   268.000   268.000   10.720   10.720   0.000   0.000
0.00625   0.00775   294.235   1137.797   268.000   268.000   10.720   10.720   0.000   0.000
0.00875   0.00775   294.572   1137.797   268.000   268.000   10.720   10.720   0.000   0.000
0.01125   0.00775   295.052   1137.797   268.000   268.000   10.720   10.720   0.000   0.000
0.01375   0.00775   295.702   1137.797   268.000   268.000   10.720   10.720   0.000   0.000
0.01625   0.00775   296.554   1137.797   268.000   268.000   10.720   10.720   0.000   0.000
0.01875   0.00775   297.649   1137.797   268.000   268.000   10.720   10.720   0.000   0.000
0.02125   0.00775   299.032   1137.797   268.000   268.000   10.720   10.720   0.000   0.000
0.02375   0.00775   300.754   1137.797   268.000   268.000   10.720   10.720   0.000   0.000
0.02625   0.00775   302.872   1137.797   268.000   268.000   10.720   10.720   0.000   0.000
0.02875   0.00775   305.433   1137.797   268.000   268.000   10.720   10.720   0.000   0.000
0.03125   0.00775   308.401   1137.797   268.000   268.000   10.720   10.720   0.000   0.000
0.03375   0.00775   311.125   1137.797   268.000   268.000   10.720   10.720   0.000   0.000
0.03625   0.00775   313.566   1137.797   268.000   268.000   10.720   10.720   0.000   0.000
0.03875   0.00775   315.773   1137.797   268.000   268.000   10.720   10.720   0.000   0.000
0.04125   0.00775   317.796   1137.797   268.000   268.000   10.720   10.720   0.000   0.000
0.04375   0.00775   319.681   1137.797   268.000   268.000   10.720   10.720   0.000   0.000
0.04625   0.00775   321.465   1137.797   268.000   268.000   10.720   10.720   0.000   0.000
0.04875   0.00775   323.161   1137.797   268.000   268.000   10.720   0.000   0.000   16.213
0.00125   0.00725   293.916   1137.797   268.000   268.000   0.000   10.720   0.000   0.000
0.00375   0.00725   294.020   1137.797   268.000   268.000   10.720   10.720   0.000   0.000
0.00625   0.00725   294.233   1137.797   268.000   268.000   10.720   10.720   0.000   0.000
0.00875   0.00725   294.569   1137.797   268.000   268.000   10.720   10.720   0.000   0.000
0.01125   0.00725   295.049   1137.797   268.000   268.000   10.720   10.720   0.000   0.000
0.01375   0.00725   295.698   1137.797   268.000   268.000   10.720   10.720   0.000   0.000
0.01625   0.00725   296.549   1137.797   268.000   268.000   10.720   10.720   0.000   0.000
0.01875   0.00725   297.642   1137.797   268.000   268.000   10.720   10.720   0.000   0.000
0.02125   0.00725   299.023   1137.797   268.000   268.000   10.720   10.720   0.000   0.000
0.02375   0.00725   300.743   1137.797   268.000   268.000   10.720   10.720   0.000   0.000
0.02625   0.00725   302.854   1137.797   268.000   268.000   10.720   10.720   0.000   0.000
0.02875   0.00725   305.394   1137.797   268.000   268.000   10.720   10.720   0.000   0.000
0.03125   0.00725   308.292   1137.797   268.000   268.000   10.720   10.720   0.000   0.000
0.03375   0.00725   310.994   1137.797   268.000   268.000   10.720   10.720   0.000   0.000
0.03625   0.00725   313.430   1137.797   268.000   268.000   10.720   10.720   0.000   0.000
0.03875   0.00725   315.634   1137.797   268.000   268.000   10.720   10.720   0.000   0.000
0.04125   0.00725   317.655   1137.797   268.000   268.000   10.720   10.720   0.000   0.000
0.04375   0.00725   319.540   1137.797   268.000   268.000   10.720   10.720   0.000   0.000
0.04625   0.00725   321.326   1137.797   268.000   268.000   10.720   10.720   0.000   0.000
0.04875   0.00725   323.038   1137.797   268.000   268.000   10.720   0.000   0.000   16.214
0.00125   0.00675   293.914   1137.797   268.000   268.000   0.000   10.720   0.000   0.000
0.00375   0.00675   294.018   1137.797   268.000   268.000   10.720   10.720   0.000   0.000
0.00625   0.00675   294.230   1137.797   268.000   268.000   10.720   10.720   0.000   0.000
0.00875   0.00675   294.566   1137.797   268.000   268.000   10.720   10.720   0.000   0.000
0.01125   0.00675   295.045   1137.797   268.000   268.000   10.720   10.720   0.000   0.000
0.01375   0.00675   295.692   1137.797   268.000   268.000   10.720   10.720   0.000   0.000
0.01625   0.00675   296.542   1137.797   268.000   268.000   10.720   10.720   0.000   0.000
0.01875   0.00675   297.634   1137.797   268.000   268.000   10.720   10.720   0.000   0.000
0.02125   0.00675   299.013   1137.797   268.000   268.000   10.720   10.720   0.000   0.000
0.02375   0.00675   300.730   1137.797   268.000   268.000   10.720   10.720   0.000   0.000
0.02625   0.00675   302.835   1137.797   268.000   268.000   10.720   10.720   0.000   0.000
0.02875   0.00675   305.360   1137.797   268.000   268.000   10.720   10.720   0.000   0.000
0.03125   0.00675   308.210   1137.797   268.000   268.000   10.720   10.720   0.000   0.000
0.03375   0.00675   310.897   1137.797   268.000   268.000   10.720   10.720   0.000   0.000
0.03625   0.00675   313.327   1137.797   268.000   268.000   10.720   10.720   0.000   0.000
0.03875   0.00675   315.527   1137.797   268.000   268.000   10.720   10.720   0.000   0.000
0.04125   0.00675   317.547   1137.797   268.000   268.000   10.720   10.720   0.000   0.000
0.04375   0.00675   319.430   1137.797   268.000   268.000   10.720   10.720   0.000   0.000
0.04625   0.00675   321.219   1137.797   268.000   268.000   10.720   10.720   0.000   0.000
0.04875   0.00675   322.952   1137.797   268.000   268.000   10.720   0.000   0.000   16.214
0.00125   0.00625   293.912   1137.797   268.000   2.085   0.000   10.720   0.000   0.000
0.00375   0.00625   294.015   1137.797   268.000   2.085   10.720   10.720   0.000   0.000
0.00625   0.00625   294.227   1137.797   268.000   2.085   10.720   10.720   0.000   0.000
0.00875   0.00625   294.562   1137.797   268.000   2.085   10.720   10.720   0.000   0.000
0.01125   0.00625   295.040   1137.797   268.000   2.085   10.720   10.720   0.000   0.000
0.01375   0.00625   295.686   1137.797   268.000   2.085   10.720   10.720   0.000   0.000
0.01625   0.00625   296.534   1137.797   268.000   2.085   10.720   10.720   0.000   0.000
0.01875   0.00625   297.624   1137.797   268.000   2.085   10.720   10.720   0.000   0.000
0.02125   0.00625   299.001   1137.797   268.000   2.085   10.720   10.720   0.000   0.000
0.02375   0.00625   300.714   1137.797   268.000   2.085   10.720   10.720   0.000   0.000
0.02625   0.00625   302.816   1137.797   268.000   2.085   10.720   10.720   0.000   0.000
0.02875   0.00625   305.329   1137.797   268.000   2.085   10.720   10.720   0.000   0.000
0.03125   0.00625   308.155   1137.797   268.000   2.085   10.720   10.720   0.000   0.000
0.03375   0.00625   310.831   1137.797   268.000   2.085   10.720   10.720   0.000   0.000
0.03625   0.00625   313.256   1137.797   268.000   2.085   10.720   10.720   0.000   0.000
0.03875   0.00625   315.454   1137.797   268.000   2.085   10.720   10.720   0.000   0.000
0.04125   0.00625   317.470   1137.797   268.000   2.085   10.720   10.720   0.000   0.000
0.04375   0.00625   319.352   1137.797   268.000   2.085   10.720   10.720   0.000   0.000
0.04625   0.00625   321.143   1137.797   268.000   2.085   10.720   10.720   0.000   0.000
0.04875   0.00625   322.905   1137.797   268.000   2.085   10.720   0.000   0.000   16.214
0.00125   0.00575   293.550   686.719   2.085   1.046   0.000   0.042   0.000   0.000
0.00375   0.00575   293.620   686.719   2.085   1.046   0.042   0.042   0.000   0.000
0.00625   0.00575   293.765   686.719   2.085   1.046   0.042   0.042   0.000   0.000
0.00875   0.00575   293.997   686.719   2.085   1.046   0.042   0.042   0.000   0.000
0.01125   0.00575   294.331   686.719   2.085   1.046   0.042   0.042   0.000   0.000
0.01375   0.00575   294.790   686.719   2.085   1.046   0.042   0.042   0.000   0.000
0.01625   0.00575   295.402   686.719   2.085   1.046   0.042   0.042   0.000   0.000
0.01875   0.00575   296.202   686.719   2.085   1.046   0.042   0.042   0.000   0.000
0.02125   0.00575   297.230   686.719   2.085   1.046   0.042   0.042   0.000   0.000
0.02375   0.00575   298.532   686.719   2.085   1.046   0.042   0.042   0.000   0.000
0.02625   0.00575   300.154   686.719   2.085   1.046   0.042   0.042   0.000   0.000
0.02875   0.00575   302.122   686.719   2.085   1.046   0.042   0.042   0.000   0.000
0.03125   0.00575   304.352   686.719   2.085   1.046   0.042   0.042   0.000   0.000
0.03375   0.00575   306.471   686.719   2.085   1.046   0.042   0.042   0.000   0.000
0.03625   0.00575   308.399   686.719   2.085   1.046   0.042   0.042   0.000   0.000
0.03875   0.00575   310.162   686.719   2.085   1.046   0.042   0.042   0.000   0.000
0.04125   0.00575   311.811   686.719   2.085   1.046   0.042   0.042   0.000   0.000
0.04375   0.00575   313.403   686.719   2.085   1.046   0.042   0.042   0.000   0.000
0.04625   0.00575   315.196   686.719   2.085   1.046   0.042   0.042   0.000   0.000
0.04875   0.00575   321.804   686.719   2.085   1.046   0.042   0.000   0.000   6.082
0.00125   0.00525   293.225   686.719   1.046   1.046   0.000   0.042   0.000   0.000
0.00375   0.00525   293.259   686.719   1.046   1.046   0.042   0.042   0.000   0.000
0.00625   0.00525   293.330   686.719   1.046   1.046   0.042   0.042   0.000   0.000
0.00875   0.00525   293.444   686.719   1.046   1.046   0.042   0.042   0.000   0.000
0.01125   0.00525   293.614   686.719   1.046   1.046   0.042   0.042   0.000   0.000
0.01375   0.00525   293.852   686.719   1.046   1.046   0.042   0.042   0.000   0.000
0.01625   0.00525   294.178   686.719   1.046   1.046   0.042   0.042   0.000   0.000
0.01875   0.00525   294.617   686.719   1.046   1.046   0.042   0.042   0.000   0.000
0.02125   0.00525   295.196   686.719   1.046   1.046   0.042   0.042   0.000   0.000
0.02375   0.00525   295.951   686.719   1.046   1.046   0.042   0.042   0.000   0.000
0.02625   0.00525   296.918   686.719   1.046   1.046   0.042   0.042   0.000   0.000
0.02875   0.00525   298.120   686.719   1.046   1.046   0.042   0.042   0.000   0.000
0.03125   0.00525   299.505   686.719   1.046   1.046   0.042   0.042   0.000   0.000
0.03375   0.00525   300.842   686.719   1.046   1.046   0.042   0.042   0.000   0.000
0.03625   0.00525   302.085   686.719   1.046   1.046   0.042   0.042   0.000   0.000
0.03875   0.00525   303.265   686.719   1.046   1.046   0.042   0.042   0.000   0.000
0.04125   0.00525   304.430   686.719   1.046   1.046   0.042   0.042   0.000   0.000
0.04375   0.00525   305.648   686.719   1.046   1.046   0.042   0.042   0.000   0.000
0.04625   0.00525   307.442   686.719   1.046   1.046   0.042   0.042   0.000   0.000
0.04875   0.00525   318.571   686.719   1.046   1.046   0.042   0.000   0.000   6.085
0.00125   0.00475   293.092   686.719   1.046   1.046   0.000   0.042   0.000   0.000
0.00375   0.00475   293.109   686.719   1.046   1.046   0.042   0.042   0.000   0.000
0.00625   0.00475   293.143   686.719   1.046   1.046   0.042   0.042   0.000   0.000
0.00875   0.00475   293.199   686.719   1.046   1.046   0.042   0.042   0.000   0.000
0.01125   0.00475   293.284   686.719   1.046   1.046   0.042   0.042   0.000   0.000
0.01375   0.00475   293.407   686.719   1.046   1.046   0.042   0.042   0.000   0.000
0.01625   0.00475   293.579   686.719   1.046   1.046   0.042   0.042   0.000   0.000
0.01875   0.00475   293.816   686.719   1.046   1.046   0.042   0.042   0.000   0.000
0.02125   0.00475   294.138   686.719   1.046   1.046   0.042   0.042   0.000   0.000
0.02375   0.00475   294.567   686.719   1.046   1.046   0.042   0.042   0.000   0.000
0.02625   0.00475   295.130   686.719   1.046   1.046   0.042   0.042   0.000   0.000
0.02875   0.00475   295.845   686.719   1.046   1.046   0.042   0.042   0.000   0.000
0.03125   0.00475   296.690   686.719   1.046   1.046   0.042   0.042   0.000   0.000
0.03375   0.00475   297.546   686.719   1.046   1.046   0.042   0.042   0.000   0.000
0.03625   0.00475   298.396   686.719   1.046   1.046   0.042   0.042   0.000   0.000
0.03875   0.00475   299.266   686.719   1.046   1.046   0.042   0.042   0.000   0.000
0.04125   0.00475   300.196   686.719   1.046   1.046   0.042   0.042   0.000   0.000
0.04375   0.00475   301.248   686.719   1.046   1.046   0.042   0.042   0.000   0.000
0.04625   0.00475   302.934   686.719   1.046   1.046   0.042   0.042   0.000   0.000
0.04875   0.00475   314.014   686.719   1.046   1.046   0.042   0.000   0.000   6.090
0.00125   0.00425   293.053   686.719   1.046   2.085   0.000   0.042   0.000   0.000
0.00375   0.00425   293.063   686.719   1.046   2.085   0.042   0.042   0.000   0.000
0.00625   0.00425   293.084   686.719   1.046   2.085   0.042   0.042   0.000   0.000
0.00875   0.00425   293.118   686.719   1.046   2.085   0.042   0.042   0.000   0.000
0.01125   0.00425   293.170   686.719   1.046   2.085   0.042   0.042   0.000   0.000
0.01375   0.00425   293.244   686.719   1.046   2.085   0.042   0.042   0.000   0.000
0.01625   0.00425   293.350   686.719   1.046   2.085   0.042   0.042   0.000   0.000
0.01875   0.00425   293.495   686.719   1.046   2.085   0.042   0.042   0.000   0.000
0.02125   0.00425   293.692   686.719   1.046   2.085   0.042   0.042   0.000   0.000
0.02375   0.00425   293.956   686.719   1.046   2.085   0.042   0.042   0.000   0.000
0.02625   0.00425   294.301   686.719   1.046   2.085   0.042   0.042   0.000   0.000
0.02875   0.00425   294.743   686.719   1.046   2.085   0.042   0.042   0.000   0.000
0.03125   0.00425   295.284   686.719   1.046   2.085   0.042   0.042   0.000   0.000
0.03375   0.00425   295.895   686.719   1.046   2.085   0.042   0.042   0.000   0.000
0.03625   0.00425   296.582   686.719   1.046   2.085   0.042   0.042   0.000   0.000
0.03875   0.00425   297.364   686.719   1.046   2.085   0.042   0.042   0.000   0.000
0.04125   0.00425   298.267   686.719   1.046   2.085   0.042   0.042   0.000   0.000
0.04375   0.00425   299.324   686.719   1.046   2.085   0.042   0.042   0.000   0.000
0.04625   0.00425   300.772   686.719   1.046   2.085   0.042   0.042   0.000   0.000
0.04875   0.00425   307.218   686.719   1.046   2.085   0.042   0.000   0.000   6.097
0.00125   0.00375   293.062   1137.797   2.085   268.000   0.000   10.720   0.000   0.000
0.00375   0.00375   293.073   1137.797   2.085   268.000   10.720   10.720   0.000   0.000
0.00625   0.00375   293.094   1137.797   2.085   268.000   10.720   10.720   0.000   0.000
0.00875   0.00375   293.129   1137.797   2.085   268.000   10.720   10.720   0.000   0.000
0.01125   0.00375   293.180   1137.797   2.085   268.000   10.720   10.720   0.000   0.000
0.01375   0.00375   293.253   1137.797   2.085   268.000   10.720   10.720   0.000   0.000
0.01625   0.00375   293.353   1137.797   2.085   268.000   10.720   10.720   0.000   0.000
0.01875   0.00375   293.488   1137.797   2.085   268.000   10.720   10.720   0.000   0.000
0.02125   0.00375   293.666   1137.797   2.085   268.000   10.720   10.720   0.000   0.000
0.02375   0.00375   293.897   1137.797   2.085   268.000   10.720   10.720   0.000   0.000
0.02625   0.00375   294.192   1137.797   2.085   268.000   10.720   10.720   0.000   0.000
0.02875   0.00375   294.564   1137.797   2.085   268.000   10.720   10.720   0.000   0.000
0.03125   0.00375   295.025   1137.797   2.085   268.000   10.720   10.720   0.000   0.000
0.03375   0.00375   295.587   1137.797   2.085   268.000   10.720   10.720   0.000   0.000
0.03625   0.00375   296.265   1137.797   2.085   268.000   10.720   10.720   0.000   0.000
0.03875   0.00375   297.073   1137.797   2.085   268.000   10.720   10.720   0.000   0.000
0.04125   0.00375   298.027   1137.797   2.085   268.000   10.720   10.720   0.000   0.000
0.04375   0.00375   299.141   1137.797   2.085   268.000   10.720   10.720   0.000   0.000
0.04625   0.00375   300.435   1137.797   2.085   268.000   10.720   10.720   0.000   0.000
0.04875   0.00375   301.956   1137.797   2.085   268.000   10.720   0.000   0.000   16.272
0.00125   0.00325   293.062   1137.797   268.000   268.000   0.000   10.720   0.000   0.000
0.00375   0.00325   293.073   1137.797   268.000   268.000   10.720   10.720   0.000   0.000
0.00625   0.00325   293.094   1137.797   268.000   268.000   10.720   10.720   0.000   0.000
0.00875   0.00325   293.129   1137.797   268.000   268.000   10.720   10.720   0.000   0.000
0.01125   0.00325   293.180   1137.797   268.000   268.000   10.720   10.720   0.000   0.000
0.01375   0.00325   293.253   1137.797   268.000   268.000   10.720   10.720   0.000   0.000
0.01625   0.00325   293.353   1137.797   268.000   268.000   10.720   10.720   0.000   0.000
0.01875   0.00325   293.488   1137.797   268.000   268.000   10.720   10.720   0.000   0.000
0.02125   0.00325   293.666   1137.797   268.000   268.000   10.720   10.720   0.000   0.000
0.02375   0.00325   293.896   1137.797   268.000   268.000   10.720   10.720   0.000   0.000
0.02625   0.00325   294.192   1137.797   268.000   268.000   10.720   10.720   0.000   0.000
0.02875   0.00325   294.563   1137.797   268.000   268.000   10.720   10.720   0.000   0.000
0.03125   0.00325   295.023   1137.797   268.000   268.000   10.720   10.720   0.000   0.000
0.03375   0.00325   295.585   1137.797   268.000   268.000   10.720   10.720   0.000   0.000
0.03625   0.00325   296.263   1137.797   268.000   268.000   10.720   10.720   0.000   0.000
0.03875   0.00325   297.071   1137.797   268.000   268.000   10.720   10.720   0.000   0.000
0.04125   0.00325   298.025   1137.797   268.000   268.000   10.720   10.720   0.000   0.000
0.04375   0.00325   299.139   1137.797   268.000   268.000   10.720   10.720   0.000   0.000
0.04625   0.00325   300.431   1137.797   268.000   268.000   10.720   10.720   0.000   0.000
0.04875   0.00325   301.923   1137.797   268.000   268.000   10.720   0.000   0.000   16.272
0.00125   0.00275   293.062   1137.797   268.000   268.000   0.000   10.720   0.000   0.000
0.00375   0.00275   293.073   1137.797   268.000   268.000   10.720   10.720   0.000   0.000
0.00625   0.00275   293.094   1137.797   268.000   268.000   10.720   10.720   0.000   0.000
0.00875   0.00275   293.129   1137.797   268.000   268.000   10.720   10.720   0.000   0.000
0.01125   0.00275   293.180   1137.797   268.000   268.000   10.720   10.720   0.000   0.000
0.01375   0.00275   293.253   1137.797   268.000   268.000   10.720   10.720   0.000   0.000
0.01625   0.00275   293.353   1137.797   268.000   268.000   10.720   10.720   0.000   0.000
0.01875   0.00275   293.488   1137.797   268.000   268.000   10.720   10.720   0.000   0.000
0.02125   0.00275   293.665   1137.797   268.000   268.000   10.720   10.720   0.000   0.000
0.02375   0.00275   293.896   1137.797   268.000   268.000   10.720   10.720   0.000   0.000
0.02625   0.00275   294.191   1137.797   268.000   268.000   10.720   10.720   0.000   0.000
0.02875   0.00275   294.562   1137.797   268.000   268.000   10.720   10.720   0.000   0.000
0.03125   0.00275   295.022   1137.797   268.000   268.000   10.720   10.720   0.000   0.000
0.03375   0.00275   295.584   1137.797   268.000   268.000   10.720   10.720   0.000   0.000
0.03625   0.00275   296.261   1137.797   268.000   268.000   10.720   10.720   0.000   0.000
0.03875   0.00275   297.070   1137.797   268.000   268.000   10.720   10.720   0.000   0.000
0.04125   0.00275   298.024   1137.797   268.000   268.000   10.720   10.720   0.000   0.000
0.04375   0.00275   299.138   1137.797   268.000   268.000   10.720   10.720   0.000   0.000
0.04625   0.00275   300.426   1137.797   268.000   268.000   10.720   10.720   0.000   0.000
0.04875   0.00275   301.896   1137.797   268.000   268.000   10.720   0.000   0.000   16.272
0.00125   0.00225   293.062   1137.797   268.000   268.000   0.000   10.720   0.000   0.000
0.00375   0.00225   293.073   1137.797   268.000   268.000   10.720   10.720   0.000   0.000
0.00625   0.00225   293.094   1137.797   268.000   268.000   10.720   10.720   0.000   0.000
0.00875   0.00225   293.129   1137.797   268.000   268.000   10.720   10.720   0.000   0.000
0.01125   0.00225   293.181   1137.797   268.000   268.000   10.720   10.720   0.000   0.000
0.01375   0.00225   293.253   1137.797   268.000   268.000   10.720   10.720   0.000   0.000
0.01625   0.00225   293.353   1137.797   268.000   268.000   10.720   10.720   0.000   0.000
0.01875   0.00225   293.488   1137.797   268.000   268.000   10.720   10.720   0.000   0.000
0.02125   0.00225   293.665   1137.797   268.000   268.000   10.720   10.720   0.000   0.000
0.02375   0.00225   293.896   1137.797   268.000   268.000   10.720   10.720   0.000   0.000
0.02625   0.00225   294.190   1137.797   268.000   268.000   10.720   10.720   0.000   0.000
0.02875   0.00225   294.561   1137.797   268.000   268.000   10.720   10.720   0.000   0.000
0.03125   0.00225   295.021   1137.797   268.000   268.000   10.720   10.720   0.000   0.000
0.03375   0.00225   295.582   1137.797   268.000   268.000   10.720   10.720   0.000   0.000
0.03625   0.00225   296.260   1137.797   268.000   268.000   10.720   10.720   0.000   0.000
0.03875   0.00225   297.069   1137.797   268.000   268.000   10.720   10.720   0.000   0.000
0.04125   0.00225   298.023   1137.797   268.000   268.000   10.720   10.720   0.000   0.000
0.04375   0.00225   299.136   1137.797   268.000   268.000   10.720   10.720   0.000   0.000
0.04625   0.00225   300.421   1137.797   268.000   268.000   10.720   10.720   0.000   0.000
0.04875   0.00225   301.875   1137.797   268.000   268.000   10.720   0.000   0.000   16.272
0.00125   0.00175   293.063   1137.797   268.000   268.000   0.000   10.720   0.000   0.000
0.00375   0.00175   293.073   1137.797   268.000   268.000   10.720   10.720   0.000   0.000
0.00625   0.00175   293.094   1137.797   268.000   268.000   10.720   10.720   0.000   0.000
0.00875   0.00175   293.129   1137.797   268.000   268.000   10.720   10.720   0.000   0.000
0.01125   0.00175   293.181   1137.797   268.000   268.000   10.720   10.720   0.000   0.000
0.01375   0.00175   293.253   1137.797   268.000   268.000   10.720   10.720   0.000   0.000
0.01625   0.00175   293.353   1137.797   268.000   268.000   10.720   10.720   0.000   0.000
0.01875   0.00175   293.488   1137.797   268.000   268.000   10.720   10.720   0.000   0.000
0.02125   0.00175   293.665   1137.797   268.000   268.000   10.720   10.720   0.000   0.000