VARIABLES = X, Y, T, ap,an,as,aw,ae,sp,su
ZONE I=20,J=20, F=POINT,t="21.836"
0.00125   0.00975   297.124   1137.797   0.000   268.000   0.000   10.720   0.000   -0.003
0.00375   0.00975   297.340   1137.797   0.000   268.000   10.720   10.720   0.000   -0.003
0.00625   0.00975   297.778   1137.797   0.000   268.000   10.720   10.720   0.000   -0.004
0.00875   0.00975   298.447   1137.797   0.000   268.000   10.720   10.720   0.000   -0.004
0.01125   0.00975   299.363   1137.797   0.000   268.000   10.720   10.720   0.000   -0.005
0.01375   0.00975   300.547   1137.797   0.000   268.000   10.720   10.720   0.000   -0.006
0.01625   0.00975   302.023   1137.797   0.000   268.000   10.720   10.720   0.000   -0.007
0.01875   0.00975   303.821   1137.797   0.000   268.000   10.720   10.720   0.000   -0.008
0.02125   0.00975   305.973   1137.797   0.000   268.000   10.720   10.720   0.000   -0.010
0.02375   0.00975   308.517   1137.797   0.000   268.000   10.720   10.720   0.000   -0.012
0.02625   0.00975   311.499   1137.797   0.000   268.000   10.720   10.720   0.000   -0.014
0.02875   0.00975   315.007   1137.797   0.000   268.000   10.720   10.720   0.000   -0.017
0.03125   0.00975   319.459   1137.797   0.000   268.000   10.720   10.720   0.000   81.103
0.03375   0.00975   323.083   1137.797   0.000   268.000   10.720   10.720   0.000   81.046
0.03625   0.00975   326.296   1137.797   0.000   268.000   10.720   10.720   0.000   80.993
0.03875   0.00975   329.182   1137.797   0.000   268.000   10.720   10.720   0.000   80.945
0.04125   0.00975   331.778   1137.797   0.000   268.000   10.720   10.720   0.000   80.901
0.04375   0.00975   334.112   1137.797   0.000   268.000   10.720   10.720   0.000   80.860
0.04625   0.00975   336.197   1137.797   0.000   268.000   10.720   10.720   0.000   80.823
0.04875   0.00975   338.023   1137.797   0.000   268.000   10.720   0.000   0.000   96.954
0.00125   0.00925   297.123   1137.797   268.000   268.000   0.000   10.720   0.000   0.000
0.00375   0.00925   297.339   1137.797   268.000   268.000   10.720   10.720   0.000   0.000
0.00625   0.00925   297.776   1137.797   268.000   268.000   10.720   10.720   0.000   0.000
0.00875   0.00925   298.445   1137.797   268.000   268.000   10.720   10.720   0.000   0.000
0.01125   0.00925   299.361   1137.797   268.000   268.000   10.720   10.720   0.000   0.000
0.01375   0.00925   300.545   1137.797   268.000   268.000   10.720   10.720   0.000   0.000
0.01625   0.00925   302.021   1137.797   268.000   268.000   10.720   10.720   0.000   0.000
0.01875   0.00925   303.818   1137.797   268.000   268.000   10.720   10.720   0.000   0.000
0.02125   0.00925   305.970   1137.797   268.000   268.000   10.720   10.720   0.000   0.000
0.02375   0.00925   308.514   1137.797   268.000   268.000   10.720   10.720   0.000   0.000
0.02625   0.00925   311.494   1137.797   268.000   268.000   10.720   10.720   0.000   0.000
0.02875   0.00925   314.985   1137.797   268.000   268.000   10.720   10.720   0.000   0.000
0.03125   0.00925   319.208   1137.797   268.000   268.000   10.720   10.720   0.000   0.000
0.03375   0.00925   322.816   1137.797   268.000   268.000   10.720   10.720   0.000   0.000
0.03625   0.00925   326.027   1137.797   268.000   268.000   10.720   10.720   0.000   0.000
0.03875   0.00925   328.912   1137.797   268.000   268.000   10.720   10.720   0.000   0.000
0.04125   0.00925   331.508   1137.797   268.000   268.000   10.720   10.720   0.000   0.000
0.04375   0.00925   333.842   1137.797   268.000   268.000   10.720   10.720   0.000   0.000
0.04625   0.00925   335.928   1137.797   268.000   268.000   10.720   10.720   0.000   0.000
0.04875   0.00925   337.756   1137.797   268.000   268.000   10.720   0.000   0.000   16.166
0.00125   0.00875   297.121   1137.797   268.000   268.000   0.000   10.720   0.000   0.000
0.00375   0.00875   297.337   1137.797   268.000   268.000   10.720   10.720   0.000   0.000
0.00625   0.00875   297.774   1137.797   268.000   268.000   10.720   10.720   0.000   0.000
0.00875   0.00875   298.442   1137.797   268.000   268.000   10.720   10.720   0.000   0.000
0.01125   0.00875   299.358   1137.797   268.000   268.000   10.720   10.720   0.000   0.000
0.01375   0.00875   300.541   1137.797   268.000   268.000   10.720   10.720   0.000   0.000
0.01625   0.00875   302.017   1137.797   268.000   268.000   10.720   10.720   0.000   0.000
0.01875   0.00875   303.814   1137.797   268.000   268.000   10.720   10.720   0.000   0.000
0.02125   0.00875   305.965   1137.797   268.000   268.000   10.720   10.720   0.000   0.000
0.02375   0.00875   308.507   1137.797   268.000   268.000   10.720   10.720   0.000   0.000
0.02625   0.00875   311.483   1137.797   268.000   268.000   10.720   10.720   0.000   0.000
0.02875   0.00875   314.951   1137.797   268.000   268.000   10.720   10.720   0.000   0.000
0.03125   0.00875   318.998   1137.797   268.000   268.000   10.720   10.720   0.000   0.000
0.03375   0.00875   322.583   1137.797   268.000   268.000   10.720   10.720   0.000   0.000
0.03625   0.00875   325.790   1137.797   268.000   268.000   10.720   10.720   0.000   0.000
0.03875   0.00875   328.674   1137.797   268.000   268.000   10.720   10.720   0.000   0.000
0.04125   0.00875   331.270   1137.797   268.000   268.000   10.720   10.720   0.000   0.000
0.04375   0.00875   333.603   1137.797   268.000   268.000   10.720   10.720   0.000   0.000
0.04625   0.00875   335.691   1137.797   268.000   268.000   10.720   10.720   0.000   0.000
0.04875   0.00875   337.525   1137.797   268.000   268.000   10.720   0.000   0.000   16.166
0.00125   0.00825   297.118   1137.797   268.000   268.000   0.000   10.720   0.000   0.000
0.00375   0.00825   297.333   1137.797   268.000   268.000   10.720   10.720   0.000   0.000
0.00625   0.00825   297.770   1137.797   268.000   268.000   10.720   10.720   0.000   0.000
0.00875   0.00825   298.438   1137.797   268.000   268.000   10.720   10.720   0.000   0.000
0.01125   0.00825   299.354   1137.797   268.000   268.000   10.720   10.720   0.000   0.000
0.01375   0.00825   300.536   1137.797   268.000   268.000   10.720   10.720   0.000   0.000
0.01625   0.00825   302.011   1137.797   268.000   268.000   10.720   10.720   0.000   0.000
0.01875   0.00825   303.807   1137.797   268.000   268.000   10.720   10.720   0.000   0.000
0.02125   0.00825   305.957   1137.797   268.000   268.000   10.720   10.720   0.000   0.000
0.02375   0.00825   308.497   1137.797   268.000   268.000   10.720   10.720   0.000   0.000
0.02625   0.00825   311.467   1137.797   268.000   268.000   10.720   10.720   0.000   0.000
0.02875   0.00825   314.910   1137.797   268.000   268.000   10.720   10.720   0.000   0.000
0.03125   0.00825   318.824   1137.797   268.000   268.000   10.720   10.720   0.000   0.000
0.03375   0.00825   322.384   1137.797   268.000   268.000   10.720   10.720   0.000   0.000
0.03625   0.00825   325.586   1137.797   268.000   268.000   10.720   10.720   0.000   0.000
0.03875   0.00825   328.468   1137.797   268.000   268.000   10.720   10.720   0.000   0.000
0.04125   0.00825   331.063   1137.797   268.000   268.000   10.720   10.720   0.000   0.000
0.04375   0.00825   333.397   1137.797   268.000   268.000   10.720   10.720   0.000   0.000
0.04625   0.00825   335.487   1137.797   268.000   268.000   10.720   10.720   0.000   0.000
0.04875   0.00825   337.329   1137.797   268.000   268.000   10.720   0.000   0.000   16.167
0.00125   0.00775   297.113   1137.797   268.000   268.000   0.000   10.720   0.000   0.000
0.00375   0.00775   297.329   1137.797   268.000   268.000   10.720   10.720   0.000   0.000
0.00625   0.00775   297.765   1137.797   268.000   268.000   10.720   10.720   0.000   0.000
0.00875   0.00775   298.433   1137.797   268.000   268.000   10.720   10.720   0.000   0.000
0.01125   0.00775   299.348   1137.797   268.000   268.000   10.720   10.720   0.000   0.000
0.01375   0.00775   300.529   1137.797   268.000   268.000   10.720   10.720   0.000   0.000
0.01625   0.00775   302.003   1137.797   268.000   268.000   10.720   10.720   0.000   0.000
0.01875   0.00775   303.798   1137.797   268.000   268.000   10.720   10.720   0.000   0.000
0.02125   0.00775   305.946   1137.797   268.000   268.000   10.720   10.720   0.000   0.000
0.02375   0.00775   308.484   1137.797   268.000   268.000   10.720   10.720   0.000   0.000
0.02625   0.00775   311.448   1137.797   268.000   268.000   10.720   10.720   0.000   0.000
0.02875   0.00775   314.867   1137.797   268.000   268.000   10.720   10.720   0.000   0.000
0.03125   0.00775   318.682   1137.797   268.000   268.000   10.720   10.720   0.000   0.000
0.03375   0.00775   322.217   1137.797   268.000   268.000   10.720   10.720   0.000   0.000
0.03625   0.00775   325.414   1137.797   268.000   268.000   10.720   10.720   0.000   0.000
0.03875   0.00775   328.294   1137.797   268.000   268.000   10.720   10.720   0.000   0.000
0.04125   0.00775   330.888   1137.797   268.000   268.000   10.720   10.720   0.000   0.000
0.04375   0.00775   333.221   1137.797   268.000   268.000   10.720   10.720   0.000   0.000
0.04625   0.00775   335.314   1137.797   268.000   268.000   10.720   10.720   0.000   0.000
0.04875   0.00775   337.169   1137.797   268.000   268.000   10.720   0.000   0.000   16.168
0.00125   0.00725   297.108   1137.797   268.000   268.000   0.000   10.720   0.000   0.000
0.00375   0.00725   297.323   1137.797   268.000   268.000   10.720   10.720   0.000   0.000
0.00625   0.00725   297.759   1137.797   268.000   268.000   10.720   10.720   0.000   0.000
0.00875   0.00725   298.426   1137.797   268.000   268.000   10.720   10.720   0.000   0.000
0.01125   0.00725   299.340   1137.797   268.000   268.000   10.720   10.720   0.000   0.000
0.01375   0.00725   300.520   1137.797   268.000   268.000   10.720   10.720   0.000   0.000
0.01625   0.00725   301.993   1137.797   268.000   268.000   10.720   10.720   0.000   0.000
0.01875   0.00725   303.786   1137.797   268.000   268.000   10.720   10.720   0.000   0.000
0.02125   0.00725   305.932   1137.797   268.000   268.000   10.720   10.720   0.000   0.000
0.02375   0.00725   308.468   1137.797   268.000   268.000   10.720   10.720   0.000   0.000
0.02625   0.00725   311.426   1137.797   268.000   268.000   10.720   10.720   0.000   0.000
0.02875   0.00725   314.824   1137.797   268.000   268.000   10.720   10.720   0.000   0.000
0.03125   0.00725   318.568   1137.797   268.000   268.000   10.720   10.720   0.000   0.000
0.03375   0.00725   322.083   1137.797   268.000   268.000   10.720   10.720   0.000   0.000
0.03625   0.00725   325.274   1137.797   268.000   268.000   10.720   10.720   0.000   0.000
0.03875   0.00725   328.152   1137.797   268.000   268.000   10.720   10.720   0.000   0.000
0.04125   0.00725   330.744   1137.797   268.000   268.000   10.720   10.720   0.000   0.000
0.04375   0.00725   333.077   1137.797   268.000   268.000   10.720   10.720   0.000   0.000
0.04625   0.00725   335.174   1137.797   268.000   268.000   10.720   10.720   0.000   0.000
0.04875   0.00725   337.045   1137.797   268.000   268.000   10.720   0.000   0.000   16.168
0.00125   0.00675   297.101   1137.797   268.000   268.000   0.000   10.720   0.000   0.000
0.00375   0.00675   297.316   1137.797   268.000   268.000   10.720   10.720   0.000   0.000
0.00625   0.00675   297.752   1137.797   268.000   268.000   10.720   10.720   0.000   0.000
0.00875   0.00675   298.418   1137.797   268.000   268.000   10.720   10.720   0.000   0.000
0.01125   0.00675   299.331   1137.797   268.000   268.000   10.720   10.720   0.000   0.000
0.01375   0.00675   300.510   1137.797   268.000   268.000   10.720   10.720   0.000   0.000
0.01625   0.00675   301.981   1137.797   268.000   268.000   10.720   10.720   0.000   0.000
0.01875   0.00675   303.772   1137.797   268.000   268.000   10.720   10.720   0.000   0.000
0.02125   0.00675   305.916   1137.797   268.000   268.000   10.720   10.720   0.000   0.000
0.02375   0.00675   308.449   1137.797   268.000   268.000   10.720   10.720   0.000   0.000
0.02625   0.00675   311.401   1137.797   268.000   268.000   10.720   10.720   0.000   0.000
0.02875   0.00675   314.784   1137.797   268.000   268.000   10.720   10.720   0.000   0.000
0.03125   0.00675   318.481   1137.797   268.000   268.000   10.720   10.720   0.000   0.000
0.03375   0.00675   321.981   1137.797   268.000   268.000   10.720   10.720   0.000   0.000
0.03625   0.00675   325.166   1137.797   268.000   268.000   10.720   10.720   0.000   0.000
0.03875   0.00675   328.041   1137.797   268.000   268.000   10.720   10.720   0.000   0.000
0.04125   0.00675   330.632   1137.797   268.000   268.000   10.720   10.720   0.000   0.000
0.04375   0.00675   332.965   1137.797   268.000   268.000   10.720   10.720   0.000   0.000
0.04625   0.00675   335.064   1137.797   268.000   268.000   10.720   10.720   0.000   0.000
0.04875   0.00675   336.958   1137.797   268.000   268.000   10.720   0.000   0.000   16.168
0.00125   0.00625   297.094   1137.797   268.000   2.085   0.000   10.720   0.000   0.000
0.00375   0.00625   297.308   1137.797   268.000   2.085   10.720   10.720   0.000   0.000
0.00625   0.00625   297.743   1137.797   268.000   2.085   10.720   10.720   0.000   0.000
0.00875   0.00625   298.409   1137.797   268.000   2.085   10.720   10.720   0.000   0.000
0.01125   0.00625   299.320   1137.797   268.000   2.085   10.720   10.720   0.000   0.000
0.01375   0.00625   300.498   1137.797   268.000   2.085   10.720   10.720   0.000   0.000
0.01625   0.00625   301.967   1137.797   268.000   2.085   10.720   10.720   0.000   0.000
0.01875   0.00625   303.756   1137.797   268.000   2.085   10.720   10.720   0.000   0.000
0.02125   0.00625   305.898   1137.797   268.000   2.085   10.720   10.720   0.000   0.000
0.02375   0.00625   308.427   1137.797   268.000   2.085   10.720   10.720   0.000   0.000
0.02625   0.00625   311.375   1137.797   268.000   2.085   10.720   10.720   0.000   0.000
0.02875   0.00625   314.747   1137.797   268.000   2.085   10.720   10.720   0.000   0.000
0.03125   0.00625   318.420   1137.797   268.000   2.085   10.720   10.720   0.000   0.000
0.03375   0.00625   321.909   1137.797   268.000   2.085   10.720   10.720   0.000   0.000
0.03625   0.00625   325.090   1137.797   268.000   2.085   10.720   10.720   0.000   0.000
0.03875   0.00625   327.963   1137.797   268.000   2.085   10.720   10.720   0.000   0.000
0.04125   0.00625   330.552   1137.797   268.000   2.085   10.720   10.720   0.000   0.000
0.04375   0.00625   332.883   1137.797   268.000   2.085   10.720   10.720   0.000   0.000
0.04625   0.00625   334.985   1137.797   268.000   2.085   10.720   10.720   0.000   0.000
0.04875   0.00625   336.909   1137.797   268.000   2.085   10.720   0.000   0.000   16.169
0.00125   0.00575   295.968   686.719   2.085   1.046   0.000   0.042   0.000   0.000
0.00375   0.00575   296.139   686.719   2.085   1.046   0.042   0.042   0.000   0.000
0.00625   0.00575   296.487   686.719   2.085   1.046   0.042   0.042   0.000   0.000
0.00875   0.00575   297.021   686.719   2.085   1.046   0.042   0.042   0.000   0.000
0.01125   0.00575   297.756   686.719   2.085   1.046   0.042   0.042   0.000   0.000
0.01375   0.00575   298.711   686.719   2.085   1.046   0.042   0.042   0.000   0.000
0.01625   0.00575   299.910   686.719   2.085   1.046   0.042   0.042   0.000   0.000
0.01875   0.00575   301.381   686.719   2.085   1.046   0.042   0.042   0.000   0.000
0.02125   0.00575   303.155   686.719   2.085   1.046   0.042   0.042   0.000   0.000
0.02375   0.00575   305.266   686.719   2.085   1.046   0.042   0.042   0.000   0.000
0.02625   0.00575   307.746   686.719   2.085   1.046   0.042   0.042   0.000   0.000
0.02875   0.00575   310.600   686.719   2.085   1.046   0.042   0.042   0.000   0.000
0.03125   0.00575   313.721   686.719   2.085   1.046   0.042   0.042   0.000   0.000
0.03375   0.00575   316.708   686.719   2.085   1.046   0.042   0.042   0.000   0.000
0.03625   0.00575   319.452   686.719   2.085   1.046   0.042   0.042   0.000   0.000
0.03875   0.00575   321.957   686.719   2.085   1.046   0.042   0.042   0.000   0.000
0.04125   0.00575   324.248   686.719   2.085   1.046   0.042   0.042   0.000   0.000
0.04375   0.00575   326.366   686.719   2.085   1.046   0.042   0.042   0.000   0.000
0.04625   0.00575   328.579   686.719   2.085   1.046   0.042   0.042   0.000   0.000
0.04875   0.00575   335.567   686.719   2.085   1.046   0.042   0.000   0.000   6.065
0.00125   0.00525   294.651   686.719   1.046   1.046   0.000   0.042   0.000   0.000
0.00375   0.00525   294.761   686.719   1.046   1.046   0.042   0.042   0.000   0.000
0.00625   0.00525   294.984   686.719   1.046   1.046   0.042   0.042   0.000   0.000
0.00875   0.00525   295.330   686.719   1.046   1.046   0.042   0.042   0.000   0.000
0.01125   0.00525   295.810   686.719   1.046   1.046   0.042   0.042   0.000   0.000
0.01375   0.00525   296.439   686.719   1.046   1.046   0.042   0.042   0.000   0.000
0.01625   0.00525   297.238   686.719   1.046   1.046   0.042   0.042   0.000   0.000
0.01875   0.00525   298.229   686.719   1.046   1.046   0.042   0.042   0.000   0.000
0.02125   0.00525   299.439   686.719   1.046   1.046   0.042   0.042   0.000   0.000
0.02375   0.00525   300.897   686.719   1.046   1.046   0.042   0.042   0.000   0.000
0.02625   0.00525   302.629   686.719   1.046   1.046   0.042   0.042   0.000   0.000
0.02875   0.00525   304.645   686.719   1.046   1.046   0.042   0.042   0.000   0.000
0.03125   0.00525   306.869   686.719   1.046   1.046   0.042   0.042   0.000   0.000
0.03375   0.00525   309.039   686.719   1.046   1.046   0.042   0.042   0.000   0.000
0.03625   0.00525   311.079   686.719   1.046   1.046   0.042   0.042   0.000   0.000
0.03875   0.00525   312.996   686.719   1.046   1.046   0.042   0.042   0.000   0.000
0.04125   0.00525   314.818   686.719   1.046   1.046   0.042   0.042   0.000   0.000
0.04375   0.00525   316.603   686.719   1.046   1.046   0.042   0.042   0.000   0.000
0.04625   0.00525   318.924   686.719   1.046   1.046   0.042   0.042   0.000   0.000
0.04875   0.00525   330.721   686.719   1.046   1.046   0.042   0.000   0.000   6.071
0.00125   0.00475   293.937   686.719   1.046   1.046   0.000   0.042   0.000   0.000
0.00375   0.00475   294.007   686.719   1.046   1.046   0.042   0.042   0.000   0.000
0.00625   0.00475   294.149   686.719   1.046   1.046   0.042   0.042   0.000   0.000
0.00875   0.00475   294.369   686.719   1.046   1.046   0.042   0.042   0.000   0.000
0.01125   0.00475   294.676   686.719   1.046   1.046   0.042   0.042   0.000   0.000
0.01375   0.00475   295.082   686.719   1.046   1.046   0.042   0.042   0.000   0.000
0.01625   0.00475   295.600   686.719   1.046   1.046   0.042   0.042   0.000   0.000
0.01875   0.00475   296.249   686.719   1.046   1.046   0.042   0.042   0.000   0.000
0.02125   0.00475   297.047   686.719   1.046   1.046   0.042   0.042   0.000   0.000
0.02375   0.00475   298.016   686.719   1.046   1.046   0.042   0.042   0.000   0.000
0.02625   0.00475   299.176   686.719   1.046   1.046   0.042   0.042   0.000   0.000
0.02875   0.00475   300.536   686.719   1.046   1.046   0.042   0.042   0.000   0.000
0.03125   0.00475   302.055   686.719   1.046   1.046   0.042   0.042   0.000   0.000
0.03375   0.00475   303.585   686.719   1.046   1.046   0.042   0.042   0.000   0.000
0.03625   0.00475   305.085   686.719   1.046   1.046   0.042   0.042   0.000   0.000
0.03875   0.00475   306.565   686.719   1.046   1.046   0.042   0.042   0.000   0.000
0.04125   0.00475   308.045   686.719   1.046   1.046   0.042   0.042   0.000   0.000
0.04375   0.00475   309.578   686.719   1.046   1.046   0.042   0.042   0.000   0.000
0.04625   0.00475   311.735   686.719   1.046   1.046   0.042   0.042   0.000   0.000
0.04875   0.00475   323.457   686.719   1.046   1.046   0.042   0.000   0.000   6.080
0.00125   0.00425   293.615   686.719   1.046   2.085   0.000   0.042   0.000   0.000
0.00375   0.00425   293.660   686.719   1.046   2.085   0.042   0.042   0.000   0.000
0.00625   0.00425   293.753   686.719   1.046   2.085   0.042   0.042   0.000   0.000
0.00875   0.00425   293.896   686.719   1.046   2.085   0.042   0.042   0.000   0.000
0.01125   0.00425   294.095   686.719   1.046   2.085   0.042   0.042   0.000   0.000
0.01375   0.00425   294.356   686.719   1.046   2.085   0.042   0.042   0.000   0.000
0.01625   0.00425   294.690   686.719   1.046   2.085   0.042   0.042   0.000   0.000
0.01875   0.00425   295.104   686.719   1.046   2.085   0.042   0.042   0.000   0.000
0.02125   0.00425   295.612   686.719   1.046   2.085   0.042   0.042   0.000   0.000
0.02375   0.00425   296.224   686.719   1.046   2.085   0.042   0.042   0.000   0.000
0.02625   0.00425   296.953   686.719   1.046   2.085   0.042   0.042   0.000   0.000
0.02875   0.00425   297.806   686.719   1.046   2.085   0.042   0.042   0.000   0.000
0.03125   0.00425   298.773   686.719   1.046   2.085   0.042   0.042   0.000   0.000
0.03375   0.00425   299.810   686.719   1.046   2.085   0.042   0.042   0.000   0.000
0.03625   0.00425   300.908   686.719   1.046   2.085   0.042   0.042   0.000   0.000
0.03875   0.00425   302.073   686.719   1.046   2.085   0.042   0.042   0.000   0.000
0.04125   0.00425   303.318   686.719   1.046   2.085   0.042   0.042   0.000   0.000
0.04375   0.00425   304.668   686.719   1.046   2.085   0.042   0.042   0.000   0.000
0.04625   0.00425   306.378   686.719   1.046   2.085   0.042   0.042   0.000   0.000
0.04875   0.00425   313.129   686.719   1.046   2.085   0.042   0.000   0.000   6.091
0.00125   0.00375   293.588   1137.797   2.085   268.000   0.000   10.720   0.000   0.000
0.00375   0.00375   293.627   1137.797   2.085   268.000   10.720   10.720   0.000   0.000
0.00625   0.00375   293.706   1137.797   2.085   268.000   10.720   10.720   0.000   0.000
0.00875   0.00375   293.826   1137.797   2.085   268.000   10.720   10.720   0.000   0.000
0.01125   0.00375   293.992   1137.797   2.085   268.000   10.720   10.720   0.000   0.000
0.01375   0.00375   294.209   1137.797   2.085   268.000   10.720   10.720   0.000   0.000
0.01625   0.00375   294.481   1137.797   2.085   268.000   10.720   10.720   0.000   0.000
0.01875   0.00375   294.815   1137.797   2.085   268.000   10.720   10.720   0.000   0.000
0.02125   0.00375   295.217   1137.797   2.085   268.000   10.720   10.720   0.000   0.000
0.02375   0.00375   295.694   1137.797   2.085   268.000   10.720   10.720   0.000   0.000
0.02625   0.00375   296.252   1137.797   2.085   268.000   10.720   10.720   0.000   0.000
0.02875   0.00375   296.899   1137.797   2.085   268.000   10.720   10.720   0.000   0.000
0.03125   0.00375   297.639   1137.797   2.085   268.000   10.720   10.720   0.000   0.000
0.03375   0.00375   298.477   1137.797   2.085   268.000   10.720   10.720   0.000   0.000
0.03625   0.00375   299.416   1137.797   2.085   268.000   10.720   10.720   0.000   0.000
0.03875   0.00375   300.464   1137.797   2.085   268.000   10.720   10.720   0.000   0.000
0.04125   0.00375   301.625   1137.797   2.085   268.000   10.720   10.720   0.000   0.000
0.04375   0.00375   302.907   1137.797   2.085   268.000   10.720   10.720   0.000   0.000
0.04625   0.00375   304.321   1137.797   2.085   268.000   10.720   10.720   0.000   0.000
0.04875   0.00375   305.908   1137.797   2.085   268.000   10.720   0.000   0.000   16.262
0.00125   0.00325   293.588   1137.797   268.000   268.000   0.000   10.720   0.000   0.000
0.00375   0.00325   293.627   1137.797   268.000   268.000   10.720   10.720   0.000   0.000
0.00625   0.00325   293.705   1137.797   268.000   268.000   10.720   10.720   0.000   0.000
0.00875   0.00325   293.826   1137.797   268.000   268.000   10.720   10.720   0.000   0.000
0.01125   0.00325   293.992   1137.797   268.000   268.000   10.720   10.720   0.000   0.000
0.01375   0.00325   294.208   1137.797   268.000   268.000   10.720   10.720   0.000   0.000
0.01625   0.00325   294.480   1137.797   268.000   268.000   10.720   10.720   0.000   0.000
0.01875   0.00325   294.813   1137.797   268.000   268.000   10.720   10.720   0.000   0.000
0.02125   0.00325   295.214   1137.797   268.000   268.000   10.720   10.720   0.000   0.000
0.02375   0.00325   295.690   1137.797   268.000   268.000   10.720   10.720   0.000   0.000
0.02625   0.00325   296.248   1137.797   268.000   268.000   10.720   10.720   0.000   0.000
0.02875   0.00325   296.893   1137.797   268.000   268.000   10.720   10.720   0.000   0.000
0.03125   0.00325   297.632   1137.797   268.000   268.000   10.720   10.720   0.000   0.000
0.03375   0.00325   298.468   1137.797   268.000   268.000   10.720   10.720   0.000   0.000
0.03625   0.00325   299.406   1137.797   268.000   268.000   10.720   10.720   0.000   0.000
0.03875   0.00325   300.453   1137.797   268.000   268.000   10.720   10.720   0.000   0.000
0.04125   0.00325   301.614   1137.797   268.000   268.000   10.720   10.720   0.000   0.000
0.04375   0.00325   302.895   1137.797   268.000   268.000   10.720   10.720   0.000   0.000
0.04625   0.00325   304.305   1137.797   268.000   268.000   10.720   10.720   0.000   0.000
0.04875   0.00325   305.861   1137.797   268.000   268.000   10.720   0.000   0.000   16.262
0.00125   0.00275   293.588   1137.797   268.000   268.000   0.000   10.720   0.000   0.000
0.00375   0.00275   293.627   1137.797   268.000   268.000   10.720   10.720   0.000   0.000
0.00625   0.00275   293.705   1137.797   268.000   268.000   10.720   10.720   0.000   0.000
0.00875   0.00275   293.825   1137.797   268.000   268.000   10.720   10.720   0.000   0.000
0.01125   0.00275   293.991   1137.797   268.000   268.000   10.720   10.720   0.000   0.000
0.01375   0.00275   294.207   1137.797   268.000   268.000   10.720   10.720   0.000   0.000
0.01625   0.00275   294.478   1137.797   268.000   268.000   10.720   10.720   0.000   0.000
0.01875   0.00275   294.811   1137.797   268.000   268.000   10.720   10.720   0.000   0.000
0.02125   0.00275   295.212   1137.797   268.000   268.000   10.720   10.720   0.000   0.000
0.02375   0.00275   295.687   1137.797   268.000   268.000   10.720   10.720   0.000   0.000
0.02625   0.00275   296.244   1137.797   268.000   268.000   10.720   10.720   0.000   0.000
0.02875   0.00275   296.888   1137.797   268.000   268.000   10.720   10.720   0.000   0.000
0.03125   0.00275   297.625   1137.797   268.000   268.000   10.720   10.720   0.000   0.000
0.03375   0.00275   298.460   1137.797   268.000   268.000   10.720   10.720   0.000   0.000
0.03625   0.00275   299.398   1137.797   268.000   268.000   10.720   10.720   0.000   0.000
0.03875   0.00275   300.444   1137.797   268.000   268.000   10.720   10.720   0.000   0.000
0.04125   0.00275   301.604   1137.797   268.000   268.000   10.720   10.720   0.000   0.000
0.04375   0.00275   302.884   1137.797   268.000   268.000   10.720   10.720   0.000   0.000
0.04625   0.00275   304.290   1137.797   268.000   268.000   10.720   10.720   0.000   0.000
0.04875   0.00275   305.823   1137.797   268.000   268.000   10.720   0.000   0.000   16.262
0.00125   0.00225   293.588   1137.797   268.000   268.000   0.000   10.720   0.000   0.000
0.00375   0.00225   293.627   1137.797   268.000   268.000   10.720   10.720   0.000   0.000
0.00625   0.00225   293.705   1137.797   268.000   268.000   10.720   10.720   0.000   0.000
0.00875   0.00225   293.825   1137.797   268.000   268.000   10.720   10.720   0.000   0.000
0.01125   0.00225   293.991   1137.797   268.000   268.000   10.720   10.720   0.000   0.000
0.01375   0.00225   294.206   1137.797   268.000   268.000   10.720   10.720   0.000   0.000
0.01625   0.00225   294.477   1137.797   268.000   268.000   10.720   10.720   0.000   0.000
0.01875   0.00225   294.810   1137.797   268.000   268.000   10.720   10.720   0.000   0.000
0.02125   0.00225   295.210   1137.797   268.000   268.000   10.720   10.720   0.000   0.000
0.02375   0.00225   295.684   1137.797   268.000   268.000   10.720   10.720   0.000   0.000
0.02625   0.00225   296.240   1137.797   268.000   268.000   10.720   10.720   0.000   0.000
0.02875   0.00225   296.883   1137.797   268.000   268.000   10.720   10.720   0.000   0.000
0.03125   0.00225   297.620   1137.797   268.000   268.000   10.720   10.720   0.000   0.000
0.03375   0.00225   298.454   1137.797   268.000   268.000   10.720   10.720   0.000   0.000
0.03625   0.00225   299.391   1137.797   268.000   268.000   10.720   10.720   0.000   0.000
0.03875   0.00225   300.436   1137.797   268.000   268.000   10.720   10.720   0.000   0.000
0.04125   0.00225   301.596   1137.797   268.000   268.000   10.720   10.720   0.000   0.000
0.04375   0.00225   302.875   1137.797   268.000   268.000   10.720   10.720   0.000   0.000
0.04625   0.00225   304.276   1137.797   268.000   268.000   10.720   10.720   0.000   0.000
0.04875   0.00225   305.793   1137.797   268.000   268.000   10.720   0.000   0.000   16.262
0.00125   0.00175   293.588   1137.797   268.000   268.000   0.000   10.720   0.000   0.000
0.00375   0.00175   293.626   1137.797   268.000   268.000   10.720   10.720   0.000   0.000
0.00625   0.00175   293.705   1137.797   268.000   268.000   10.720   10.720   0.000   0.000
0.00875   0.00175   293.825   1137.797   268.000   268.000   10.720   10.720   0.000   0.000
0.01125   0.00175   293.990   1137.797   268.000   268.000   10.720   10.720   0.000   0.000
0.01375   0.00175   294.206   1137.797   268.000   268.000   10.720   10.720   0.000   0.000
0.01625   0.00175   294.476   1137.797   268.000   268.000   10.720   10.720   0.000   0.000
0.01875   0.00175   294.808   1137.797   268.000   268.000   10.720   10.720   0.000   0.000
0.02125   0.00175   295.208   1137.797   268.000   268.000   10.720   10.720   0.000   0.000