VARIABLES = X, Y, T, ap,an,as,aw,ae,sp,su
ZONE I=20,J=20, F=POINT,t="0.492"
0.00125   0.00975   293.000   1137.797   0.000   268.000   0.000   10.720   0.000   -0.000
0.00375   0.00975   293.000   1137.797   0.000   268.000   10.720   10.720   0.000   -0.000
0.00625   0.00975   293.000   1137.797   0.000   268.000   10.720   10.720   0.000   -0.000
0.00875   0.00975   293.000   1137.797   0.000   268.000   10.720   10.720   0.000   -0.000
0.01125   0.00975   293.000   1137.797   0.000   268.000   10.720   10.720   0.000   -0.000
0.01375   0.00975   293.000   1137.797   0.000   268.000   10.720   10.720   0.000   -0.000
0.01625   0.00975   293.000   1137.797   0.000   268.000   10.720   10.720   0.000   -0.000
0.01875   0.00975   293.001   1137.797   0.000   268.000   10.720   10.720   0.000   -0.000
0.02125   0.00975   293.004   1137.797   0.000   268.000   10.720   10.720   0.000   -0.000
0.02375   0.00975   293.020   1137.797   0.000   268.000   10.720   10.720   0.000   -0.000
0.02625   0.00975   293.090   1137.797   0.000   268.000   10.720   10.720   0.000   -0.000
0.02875   0.00975   293.357   1137.797   0.000   268.000   10.720   10.720   0.000   -0.000
0.03125   0.00975   294.401   1137.797   0.000   268.000   10.720   10.720   0.000   81.451
0.03375   0.00975   294.668   1137.797   0.000   268.000   10.720   10.720   0.000   81.448
0.03625   0.00975   294.739   1137.797   0.000   268.000   10.720   10.720   0.000   81.447
0.03875   0.00975   294.760   1137.797   0.000   268.000   10.720   10.720   0.000   81.447
0.04125   0.00975   294.785   1137.797   0.000   268.000   10.720   10.720   0.000   81.446
0.04375   0.00975   294.876   1137.797   0.000   268.000   10.720   10.720   0.000   81.445
0.04625   0.00975   295.174   1137.797   0.000   268.000   10.720   10.720   0.000   81.441
0.04875   0.00975   295.947   1137.797   0.000   268.000   10.720   0.000   0.000   97.719
0.00125   0.00925   293.000   1137.797   268.000   268.000   0.000   10.720   0.000   0.000
0.00375   0.00925   293.000   1137.797   268.000   268.000   10.720   10.720   0.000   0.000
0.00625   0.00925   293.000   1137.797   268.000   268.000   10.720   10.720   0.000   0.000
0.00875   0.00925   293.000   1137.797   268.000   268.000   10.720   10.720   0.000   0.000
0.01125   0.00925   293.000   1137.797   268.000   268.000   10.720   10.720   0.000   0.000
0.01375   0.00925   293.000   1137.797   268.000   268.000   10.720   10.720   0.000   0.000
0.01625   0.00925   293.000   1137.797   268.000   268.000   10.720   10.720   0.000   0.000
0.01875   0.00925   293.001   1137.797   268.000   268.000   10.720   10.720   0.000   0.000
0.02125   0.00925   293.004   1137.797   268.000   268.000   10.720   10.720   0.000   0.000
0.02375   0.00925   293.020   1137.797   268.000   268.000   10.720   10.720   0.000   0.000
0.02625   0.00925   293.088   1137.797   268.000   268.000   10.720   10.720   0.000   0.000
0.02875   0.00925   293.339   1137.797   268.000   268.000   10.720   10.720   0.000   0.000
0.03125   0.00925   294.153   1137.797   268.000   268.000   10.720   10.720   0.000   0.000
0.03375   0.00925   294.405   1137.797   268.000   268.000   10.720   10.720   0.000   0.000
0.03625   0.00925   294.474   1137.797   268.000   268.000   10.720   10.720   0.000   0.000
0.03875   0.00925   294.494   1137.797   268.000   268.000   10.720   10.720   0.000   0.000
0.04125   0.00925   294.519   1137.797   268.000   268.000   10.720   10.720   0.000   0.000
0.04375   0.00925   294.610   1137.797   268.000   268.000   10.720   10.720   0.000   0.000
0.04625   0.00925   294.909   1137.797   268.000   268.000   10.720   10.720   0.000   0.000
0.04875   0.00925   295.681   1137.797   268.000   268.000   10.720   0.000   0.000   16.287
0.00125   0.00875   293.000   1137.797   268.000   268.000   0.000   10.720   0.000   0.000
0.00375   0.00875   293.000   1137.797   268.000   268.000   10.720   10.720   0.000   0.000
0.00625   0.00875   293.000   1137.797   268.000   268.000   10.720   10.720   0.000   0.000
0.00875   0.00875   293.000   1137.797   268.000   268.000   10.720   10.720   0.000   0.000
0.01125   0.00875   293.000   1137.797   268.000   268.000   10.720   10.720   0.000   0.000
0.01375   0.00875   293.000   1137.797   268.000   268.000   10.720   10.720   0.000   0.000
0.01625   0.00875   293.000   1137.797   268.000   268.000   10.720   10.720   0.000   0.000
0.01875   0.00875   293.001   1137.797   268.000   268.000   10.720   10.720   0.000   0.000
0.02125   0.00875   293.004   1137.797   268.000   268.000   10.720   10.720   0.000   0.000
0.02375   0.00875   293.019   1137.797   268.000   268.000   10.720   10.720   0.000   0.000
0.02625   0.00875   293.084   1137.797   268.000   268.000   10.720   10.720   0.000   0.000
0.02875   0.00875   293.314   1137.797   268.000   268.000   10.720   10.720   0.000   0.000
0.03125   0.00875   293.952   1137.797   268.000   268.000   10.720   10.720   0.000   0.000
0.03375   0.00875   294.182   1137.797   268.000   268.000   10.720   10.720   0.000   0.000
0.03625   0.00875   294.247   1137.797   268.000   268.000   10.720   10.720   0.000   0.000
0.03875   0.00875   294.267   1137.797   268.000   268.000   10.720   10.720   0.000   0.000
0.04125   0.00875   294.292   1137.797   268.000   268.000   10.720   10.720   0.000   0.000
0.04375   0.00875   294.383   1137.797   268.000   268.000   10.720   10.720   0.000   0.000
0.04625   0.00875   294.681   1137.797   268.000   268.000   10.720   10.720   0.000   0.000
0.04875   0.00875   295.454   1137.797   268.000   268.000   10.720   0.000   0.000   16.288
0.00125   0.00825   293.000   1137.797   268.000   268.000   0.000   10.720   0.000   0.000
0.00375   0.00825   293.000   1137.797   268.000   268.000   10.720   10.720   0.000   0.000
0.00625   0.00825   293.000   1137.797   268.000   268.000   10.720   10.720   0.000   0.000
0.00875   0.00825   293.000   1137.797   268.000   268.000   10.720   10.720   0.000   0.000
0.01125   0.00825   293.000   1137.797   268.000   268.000   10.720   10.720   0.000   0.000
0.01375   0.00825   293.000   1137.797   268.000   268.000   10.720   10.720   0.000   0.000
0.01625   0.00825   293.000   1137.797   268.000   268.000   10.720   10.720   0.000   0.000
0.01875   0.00825   293.001   1137.797   268.000   268.000   10.720   10.720   0.000   0.000
0.02125   0.00825   293.004   1137.797   268.000   268.000   10.720   10.720   0.000   0.000
0.02375   0.00825   293.018   1137.797   268.000   268.000   10.720   10.720   0.000   0.000
0.02625   0.00825   293.079   1137.797   268.000   268.000   10.720   10.720   0.000   0.000
0.02875   0.00825   293.285   1137.797   268.000   268.000   10.720   10.720   0.000   0.000
0.03125   0.00825   293.792   1137.797   268.000   268.000   10.720   10.720   0.000   0.000
0.03375   0.00825   293.997   1137.797   268.000   268.000   10.720   10.720   0.000   0.000
0.03625   0.00825   294.059   1137.797   268.000   268.000   10.720   10.720   0.000   0.000
0.03875   0.00825   294.078   1137.797   268.000   268.000   10.720   10.720   0.000   0.000
0.04125   0.00825   294.103   1137.797   268.000   268.000   10.720   10.720   0.000   0.000
0.04375   0.00825   294.194   1137.797   268.000   268.000   10.720   10.720   0.000   0.000
0.04625   0.00825   294.492   1137.797   268.000   268.000   10.720   10.720   0.000   0.000
0.04875   0.00825   295.265   1137.797   268.000   268.000   10.720   0.000   0.000   16.288
0.00125   0.00775   293.000   1137.797   268.000   268.000   0.000   10.720   0.000   0.000
0.00375   0.00775   293.000   1137.797   268.000   268.000   10.720   10.720   0.000   0.000
0.00625   0.00775   293.000   1137.797   268.000   268.000   10.720   10.720   0.000   0.000
0.00875   0.00775   293.000   1137.797   268.000   268.000   10.720   10.720   0.000   0.000
0.01125   0.00775   293.000   1137.797   268.000   268.000   10.720   10.720   0.000   0.000
0.01375   0.00775   293.000   1137.797   268.000   268.000   10.720   10.720   0.000   0.000
0.01625   0.00775   293.000   1137.797   268.000   268.000   10.720   10.720   0.000   0.000
0.01875   0.00775   293.001   1137.797   268.000   268.000   10.720   10.720   0.000   0.000
0.02125   0.00775   293.003   1137.797   268.000   268.000   10.720   10.720   0.000   0.000
0.02375   0.00775   293.017   1137.797   268.000   268.000   10.720   10.720   0.000   0.000
0.02625   0.00775   293.074   1137.797   268.000   268.000   10.720   10.720   0.000   0.000
0.02875   0.00775   293.258   1137.797   268.000   268.000   10.720   10.720   0.000   0.000
0.03125   0.00775   293.667   1137.797   268.000   268.000   10.720   10.720   0.000   0.000
0.03375   0.00775   293.851   1137.797   268.000   268.000   10.720   10.720   0.000   0.000
0.03625   0.00775   293.909   1137.797   268.000   268.000   10.720   10.720   0.000   0.000
0.03875   0.00775   293.927   1137.797   268.000   268.000   10.720   10.720   0.000   0.000
0.04125   0.00775   293.952   1137.797   268.000   268.000   10.720   10.720   0.000   0.000
0.04375   0.00775   294.042   1137.797   268.000   268.000   10.720   10.720   0.000   0.000
0.04625   0.00775   294.340   1137.797   268.000   268.000   10.720   10.720   0.000   0.000
0.04875   0.00775   295.113   1137.797   268.000   268.000   10.720   0.000   0.000   16.289
0.00125   0.00725   293.000   1137.797   268.000   268.000   0.000   10.720   0.000   0.000
0.00375   0.00725   293.000   1137.797   268.000   268.000   10.720   10.720   0.000   0.000
0.00625   0.00725   293.000   1137.797   268.000   268.000   10.720   10.720   0.000   0.000
0.00875   0.00725   293.000   1137.797   268.000   268.000   10.720   10.720   0.000   0.000
0.01125   0.00725   293.000   1137.797   268.000   268.000   10.720   10.720   0.000   0.000
0.01375   0.00725   293.000   1137.797   268.000   268.000   10.720   10.720   0.000   0.000
0.01625   0.00725   293.000   1137.797   268.000   268.000   10.720   10.720   0.000   0.000
0.01875   0.00725   293.001   1137.797   268.000   268.000   10.720   10.720   0.000   0.000
0.02125   0.00725   293.003   1137.797   268.000   268.000   10.720   10.720   0.000   0.000
0.02375   0.00725   293.017   1137.797   268.000   268.000   10.720   10.720   0.000   0.000
0.02625   0.00725   293.070   1137.797   268.000   268.000   10.720   10.720   0.000   0.000
0.02875   0.00725   293.235   1137.797   268.000   268.000   10.720   10.720   0.000   0.000
0.03125   0.00725   293.576   1137.797   268.000   268.000   10.720   10.720   0.000   0.000
0.03375   0.00725   293.741   1137.797   268.000   268.000   10.720   10.720   0.000   0.000
0.03625   0.00725   293.795   1137.797   268.000   268.000   10.720   10.720   0.000   0.000
0.03875   0.00725   293.813   1137.797   268.000   268.000   10.720   10.720   0.000   0.000
0.04125   0.00725   293.838   1137.797   268.000   268.000   10.720   10.720   0.000   0.000
0.04375   0.00725   293.928   1137.797   268.000   268.000   10.720   10.720   0.000   0.000
0.04625   0.00725   294.224   1137.797   268.000   268.000   10.720   10.720   0.000   0.000
0.04875   0.00725   294.998   1137.797   268.000   268.000   10.720   0.000   0.000   16.289
0.00125   0.00675   293.000   1137.797   268.000   268.000   0.000   10.720   0.000   0.000
0.00375   0.00675   293.000   1137.797   268.000   268.000   10.720   10.720   0.000   0.000
0.00625   0.00675   293.000   1137.797   268.000   268.000   10.720   10.720   0.000   0.000
0.00875   0.00675   293.000   1137.797   268.000   268.000   10.720   10.720   0.000   0.000
0.01125   0.00675   293.000   1137.797   268.000   268.000   10.720   10.720   0.000   0.000
0.01375   0.00675   293.000   1137.797   268.000   268.000   10.720   10.720   0.000   0.000
0.01625   0.00675   293.000   1137.797   268.000   268.000   10.720   10.720   0.000   0.000
0.01875   0.00675   293.001   1137.797   268.000   268.000   10.720   10.720   0.000   0.000
0.02125   0.00675   293.003   1137.797   268.000   268.000   10.720   10.720   0.000   0.000
0.02375   0.00675   293.016   1137.797   268.000   268.000   10.720   10.720   0.000   0.000
0.02625   0.00675   293.066   1137.797   268.000   268.000   10.720   10.720   0.000   0.000
0.02875   0.00675   293.219   1137.797   268.000   268.000   10.720   10.720   0.000   0.000
0.03125   0.00675   293.515   1137.797   268.000   268.000   10.720   10.720   0.000   0.000
0.03375   0.00675   293.667   1137.797   268.000   268.000   10.720   10.720   0.000   0.000
0.03625   0.00675   293.719   1137.797   268.000   268.000   10.720   10.720   0.000   0.000
0.03875   0.00675   293.736   1137.797   268.000   268.000   10.720   10.720   0.000   0.000
0.04125   0.00675   293.760   1137.797   268.000   268.000   10.720   10.720   0.000   0.000
0.04375   0.00675   293.850   1137.797   268.000   268.000   10.720   10.720   0.000   0.000
0.04625   0.00675   294.146   1137.797   268.000   268.000   10.720   10.720   0.000   0.000
0.04875   0.00675   294.920   1137.797   268.000   268.000   10.720   0.000   0.000   16.289
0.00125   0.00625   293.000   1137.797   268.000   2.085   0.000   10.720   0.000   0.000
0.00375   0.00625   293.000   1137.797   268.000   2.085   10.720   10.720   0.000   0.000
0.00625   0.00625   293.000   1137.797   268.000   2.085   10.720   10.720   0.000   0.000
0.00875   0.00625   293.000   1137.797   268.000   2.085   10.720   10.720   0.000   0.000
0.01125   0.00625   293.000   1137.797   268.000   2.085   10.720   10.720   0.000   0.000
0.01375   0.00625   293.000   1137.797   268.000   2.085   10.720   10.720   0.000   0.000
0.01625   0.00625   293.000   1137.797   268.000   2.085   10.720   10.720   0.000   0.000
0.01875   0.00625   293.001   1137.797   268.000   2.085   10.720   10.720   0.000   0.000
0.02125   0.00625   293.003   1137.797   268.000   2.085   10.720   10.720   0.000   0.000
0.02375   0.00625   293.016   1137.797   268.000   2.085   10.720   10.720   0.000   0.000
0.02625   0.00625   293.064   1137.797   268.000   2.085   10.720   10.720   0.000   0.000
0.02875   0.00625   293.209   1137.797   268.000   2.085   10.720   10.720   0.000   0.000
0.03125   0.00625   293.484   1137.797   268.000   2.085   10.720   10.720   0.000   0.000
0.03375   0.00625   293.628   1137.797   268.000   2.085   10.720   10.720   0.000   0.000
0.03625   0.00625   293.678   1137.797   268.000   2.085   10.720   10.720   0.000   0.000
0.03875   0.00625   293.695   1137.797   268.000   2.085   10.720   10.720   0.000   0.000
0.04125   0.00625   293.719   1137.797   268.000   2.085   10.720   10.720   0.000   0.000
0.04375   0.00625   293.808   1137.797   268.000   2.085   10.720   10.720   0.000   0.000
0.04625   0.00625   294.103   1137.797   268.000   2.085   10.720   10.720   0.000   0.000
0.04875   0.00625   294.879   1137.797   268.000   2.085   10.720   0.000   0.000   16.289
0.00125   0.00575   293.000   686.719   2.085   1.046   0.000   0.042   0.000   0.000
0.00375   0.00575   293.000   686.719   2.085   1.046   0.042   0.042   0.000   0.000
0.00625   0.00575   293.000   686.719   2.085   1.046   0.042   0.042   0.000   0.000
0.00875   0.00575   293.000   686.719   2.085   1.046   0.042   0.042   0.000   0.000
0.01125   0.00575   293.000   686.719   2.085   1.046   0.042   0.042   0.000   0.000
0.01375   0.00575   293.000   686.719   2.085   1.046   0.042   0.042   0.000   0.000
0.01625   0.00575   293.000   686.719   2.085   1.046   0.042   0.042   0.000   0.000
0.01875   0.00575   293.000   686.719   2.085   1.046   0.042   0.042   0.000   0.000
0.02125   0.00575   293.000   686.719   2.085   1.046   0.042   0.042   0.000   0.000
0.02375   0.00575   293.001   686.719   2.085   1.046   0.042   0.042   0.000   0.000
0.02625   0.00575   293.006   686.719   2.085   1.046   0.042   0.042   0.000   0.000
0.02875   0.00575   293.022   686.719   2.085   1.046   0.042   0.042   0.000   0.000
0.03125   0.00575   293.058   686.719   2.085   1.046   0.042   0.042   0.000   0.000
0.03375   0.00575   293.075   686.719   2.085   1.046   0.042   0.042   0.000   0.000
0.03625   0.00575   293.079   686.719   2.085   1.046   0.042   0.042   0.000   0.000
0.03875   0.00575   293.080   686.719   2.085   1.046   0.042   0.042   0.000   0.000
0.04125   0.00575   293.083   686.719   2.085   1.046   0.042   0.042   0.000   0.000
0.04375   0.00575   293.092   686.719   2.085   1.046   0.042   0.042   0.000   0.000
0.04625   0.00575   293.137   686.719   2.085   1.046   0.042   0.042   0.000   0.000
0.04875   0.00575   294.205   686.719   2.085   1.046   0.042   0.000   0.000   6.109
0.00125   0.00525   293.000   686.719   1.046   1.046   0.000   0.042   0.000   0.000
0.00375   0.00525   293.000   686.719   1.046   1.046   0.042   0.042   0.000   0.000
0.00625   0.00525   293.000   686.719   1.046   1.046   0.042   0.042   0.000   0.000
0.00875   0.00525   293.000   686.719   1.046   1.046   0.042   0.042   0.000   0.000
0.01125   0.00525   293.000   686.719   1.046   1.046   0.042   0.042   0.000   0.000
0.01375   0.00525   293.000   686.719   1.046   1.046   0.042   0.042   0.000   0.000
0.01625   0.00525   293.000   686.719   1.046   1.046   0.042   0.042   0.000   0.000
0.01875   0.00525   293.000   686.719   1.046   1.046   0.042   0.042   0.000   0.000
0.02125   0.00525   293.000   686.719   1.046   1.046   0.042   0.042   0.000   0.000
0.02375   0.00525   293.000   686.719   1.046   1.046   0.042   0.042   0.000   0.000
0.02625   0.00525   293.000   686.719   1.046   1.046   0.042   0.042   0.000   0.000
0.02875   0.00525   293.001   686.719   1.046   1.046   0.042   0.042   0.000   0.000
0.03125   0.00525   293.003   686.719   1.046   1.046   0.042   0.042   0.000   0.000
0.03375   0.00525   293.003   686.719   1.046   1.046   0.042   0.042   0.000   0.000
0.03625   0.00525   293.003   686.719   1.046   1.046   0.042   0.042   0.000   0.000
0.03875   0.00525   293.004   686.719   1.046   1.046   0.042   0.042   0.000   0.000
0.04125   0.00525   293.004   686.719   1.046   1.046   0.042   0.042   0.000   0.000
0.04375   0.00525   293.004   686.719   1.046   1.046   0.042   0.042   0.000   0.000
0.04625   0.00525   293.010   686.719   1.046   1.046   0.042   0.042   0.000   0.000
0.04875   0.00525   294.097   686.719   1.046   1.046   0.042   0.000   0.000   6.109
0.00125   0.00475   293.000   686.719   1.046   1.046   0.000   0.042   0.000   0.000
0.00375   0.00475   293.000   686.719   1.046   1.046   0.042   0.042   0.000   0.000
0.00625   0.00475   293.000   686.719   1.046   1.046   0.042   0.042   0.000   0.000
0.00875   0.00475   293.000   686.719   1.046   1.046   0.042   0.042   0.000   0.000
0.01125   0.00475   293.000   686.719   1.046   1.046   0.042   0.042   0.000   0.000
0.01375   0.00475   293.000   686.719   1.046   1.046   0.042   0.042   0.000   0.000
0.01625   0.00475   293.000   686.719   1.046   1.046   0.042   0.042   0.000   0.000
0.01875   0.00475   293.000   686.719   1.046   1.046   0.042   0.042   0.000   0.000
0.02125   0.00475   293.000   686.719   1.046   1.046   0.042   0.042   0.000   0.000
0.02375   0.00475   293.000   686.719   1.046   1.046   0.042   0.042   0.000   0.000
0.02625   0.00475   293.000   686.719   1.046   1.046   0.042   0.042   0.000   0.000
0.02875   0.00475   293.000   686.719   1.046   1.046   0.042   0.042   0.000   0.000
0.03125   0.00475   293.000   686.719   1.046   1.046   0.042   0.042   0.000   0.000
0.03375   0.00475   293.000   686.719   1.046   1.046   0.042   0.042   0.000   0.000
0.03625   0.00475   293.000   686.719   1.046   1.046   0.042   0.042   0.000   0.000
0.03875   0.00475   293.000   686.719   1.046   1.046   0.042   0.042   0.000   0.000
0.04125   0.00475   293.000   686.719   1.046   1.046   0.042   0.042   0.000   0.000
0.04375   0.00475   293.001   686.719   1.046   1.046   0.042   0.042   0.000   0.000
0.04625   0.00475   293.007   686.719   1.046   1.046   0.042   0.042   0.000   0.000
0.04875   0.00475   294.093   686.719   1.046   1.046   0.042   0.000   0.000   6.109
0.00125   0.00425   293.000   686.719   1.046   2.085   0.000   0.042   0.000   0.000
0.00375   0.00425   293.000   686.719   1.046   2.085   0.042   0.042   0.000   0.000
0.00625   0.00425   293.000   686.719   1.046   2.085   0.042   0.042   0.000   0.000
0.00875   0.00425   293.000   686.719   1.046   2.085   0.042   0.042   0.000   0.000
0.01125   0.00425   293.000   686.719   1.046   2.085   0.042   0.042   0.000   0.000
0.01375   0.00425   293.000   686.719   1.046   2.085   0.042   0.042   0.000   0.000
0.01625   0.00425   293.000   686.719   1.046   2.085   0.042   0.042   0.000   0.000
0.01875   0.00425   293.000   686.719   1.046   2.085   0.042   0.042   0.000   0.000
0.02125   0.00425   293.000   686.719   1.046   2.085   0.042   0.042   0.000   0.000
0.02375   0.00425   293.000   686.719   1.046   2.085   0.042   0.042   0.000   0.000
0.02625   0.00425   293.000   686.719   1.046   2.085   0.042   0.042   0.000   0.000
0.02875   0.00425   293.000   686.719   1.046   2.085   0.042   0.042   0.000   0.000
0.03125   0.00425   293.000   686.719   1.046   2.085   0.042   0.042   0.000   0.000
0.03375   0.00425   293.000   686.719   1.046   2.085   0.042   0.042   0.000   0.000
0.03625   0.00425   293.000   686.719   1.046   2.085   0.042   0.042   0.000   0.000
0.03875   0.00425   293.000   686.719   1.046   2.085   0.042   0.042   0.000   0.000
0.04125   0.00425   293.002   686.719   1.046   2.085   0.042   0.042   0.000   0.000
0.04375   0.00425   293.012   686.719   1.046   2.085   0.042   0.042   0.000   0.000
0.04625   0.00425   293.057   686.719   1.046   2.085   0.042   0.042   0.000   0.000
0.04875   0.00425   294.125   686.719   1.046   2.085   0.042   0.000   0.000   6.109
0.00125   0.00375   293.000   1137.797   2.085   268.000   0.000   10.720   0.000   0.000
0.00375   0.00375   293.000   1137.797   2.085   268.000   10.720   10.720   0.000   0.000
0.00625   0.00375   293.000   1137.797   2.085   268.000   10.720   10.720   0.000   0.000
0.00875   0.00375   293.000   1137.797   2.085   268.000   10.720   10.720   0.000   0.000
0.01125   0.00375   293.000   1137.797   2.085   268.000   10.720   10.720   0.000   0.000
0.01375   0.00375   293.000   1137.797   2.085   268.000   10.720   10.720   0.000   0.000
0.01625   0.00375   293.000   1137.797   2.085   268.000   10.720   10.720   0.000   0.000
0.01875   0.00375   293.000   1137.797   2.085   268.000   10.720   10.720   0.000   0.000
0.02125   0.00375   293.000   1137.797   2.085   268.000   10.720   10.720   0.000   0.000
0.02375   0.00375   293.000   1137.797   2.085   268.000   10.720   10.720   0.000   0.000
0.02625   0.00375   293.000   1137.797   2.085   268.000   10.720   10.720   0.000   0.000
0.02875   0.00375   293.000   1137.797   2.085   268.000   10.720   10.720   0.000   0.000
0.03125   0.00375   293.000   1137.797   2.085   268.000   10.720   10.720   0.000   0.000
0.03375   0.00375   293.000   1137.797   2.085   268.000   10.720   10.720   0.000   0.000
0.03625   0.00375   293.001   1137.797   2.085   268.000   10.720   10.720   0.000   0.000
0.03875   0.00375   293.005   1137.797   2.085   268.000   10.720   10.720   0.000   0.000
0.04125   0.00375   293.027   1137.797   2.085   268.000   10.720   10.720   0.000   0.000
0.04375   0.00375   293.116   1137.797   2.085   268.000   10.720   10.720   0.000   0.000
0.04625   0.00375   293.410   1137.797   2.085   268.000   10.720   10.720   0.000   0.000
0.04875   0.00375   294.186   1137.797   2.085   268.000   10.720   0.000   0.000   16.291
0.00125   0.00325   293.000   1137.797   268.000   268.000   0.000   10.720   0.000   0.000
0.00375   0.00325   293.000   1137.797   268.000   268.000   10.720   10.720   0.000   0.000
0.00625   0.00325   293.000   1137.797   268.000   268.000   10.720   10.720   0.000   0.000
0.00875   0.00325   293.000   1137.797   268.000   268.000   10.720   10.720   0.000   0.000
0.01125   0.00325   293.000   1137.797   268.000   268.000   10.720   10.720   0.000   0.000
0.01375   0.00325   293.000   1137.797   268.000   268.000   10.720   10.720   0.000   0.000
0.01625   0.00325   293.000   1137.797   268.000   268.000   10.720   10.720   0.000   0.000
0.01875   0.00325   293.000   1137.797   268.000   268.000   10.720   10.720   0.000   0.000
0.02125   0.00325   293.000   1137.797   268.000   268.000   10.720   10.720   0.000   0.000
0.02375   0.00325   293.000   1137.797   268.000   268.000   10.720   10.720   0.000   0.000
0.02625   0.00325   293.000   1137.797   268.000   268.000   10.720   10.720   0.000   0.000
0.02875   0.00325   293.000   1137.797   268.000   268.000   10.720   10.720   0.000   0.000
0.03125   0.00325   293.000   1137.797   268.000   268.000   10.720   10.720   0.000   0.000
0.03375   0.00325   293.000   1137.797   268.000   268.000   10.720   10.720   0.000   0.000
0.03625   0.00325   293.001   1137.797   268.000   268.000   10.720   10.720   0.000   0.000
0.03875   0.00325   293.005   1137.797   268.000   268.000   10.720   10.720   0.000   0.000
0.04125   0.00325   293.027   1137.797   268.000   268.000   10.720   10.720   0.000   0.000
0.04375   0.00325   293.116   1137.797   268.000   268.000   10.720   10.720   0.000   0.000
0.04625   0.00325   293.412   1137.797   268.000   268.000   10.720   10.720   0.000   0.000
0.04875   0.00325   294.187   1137.797   268.000   268.000   10.720   0.000   0.000   16.291
0.00125   0.00275   293.000   1137.797   268.000   268.000   0.000   10.720   0.000   0.000
0.00375   0.00275   293.000   1137.797   268.000   268.000   10.720   10.720   0.000   0.000
0.00625   0.00275   293.000   1137.797   268.000   268.000   10.720   10.720   0.000   0.000
0.00875   0.00275   293.000   1137.797   268.000   268.000   10.720   10.720   0.000   0.000
0.01125   0.00275   293.000   1137.797   268.000   268.000   10.720   10.720   0.000   0.000
0.01375   0.00275   293.000   1137.797   268.000   268.000   10.720   10.720   0.000   0.000
0.01625   0.00275   293.000   1137.797   268.000   268.000   10.720   10.720   0.000   0.000
0.01875   0.00275   293.000   1137.797   268.000   268.000   10.720   10.720   0.000   0.000
0.02125   0.00275   293.000   1137.797   268.000   268.000   10.720   10.720   0.000   0.000
0.02375   0.00275   293.000   1137.797   268.000   268.000   10.720   10.720   0.000   0.000
0.02625   0.00275   293.000   1137.797   268.000   268.000   10.720   10.720   0.000   0.000
0.02875   0.00275   293.000   1137.797   268.000   268.000   10.720   10.720   0.000   0.000
0.03125   0.00275   293.000   1137.797   268.000   268.000   10.720   10.720   0.000   0.000
0.03375   0.00275   293.000   1137.797   268.000   268.000   10.720   10.720   0.000   0.000
0.03625   0.00275   293.001   1137.797   268.000   268.000   10.720   10.720   0.000   0.000
0.03875   0.00275   293.005   1137.797   268.000   268.000   10.720   10.720   0.000   0.000
0.04125   0.00275   293.027   1137.797   268.000   268.000   10.720   10.720   0.000   0.000
0.04375   0.00275   293.117   1137.797   268.000   268.000   10.720   10.720   0.000   0.000
0.04625   0.00275   293.413   1137.797   268.000   268.000   10.720   10.720   0.000   0.000
0.04875   0.00275   294.187   1137.797   268.000   268.000   10.720   0.000   0.000   16.291
0.00125   0.00225   293.000   1137.797   268.000   268.000   0.000   10.720   0.000   0.000
0.00375   0.00225   293.000   1137.797   268.000   268.000   10.720   10.720   0.000   0.000
0.00625   0.00225   293.000   1137.797   268.000   268.000   10.720   10.720   0.000   0.000
0.00875   0.00225   293.000   1137.797   268.000   268.000   10.720   10.720   0.000   0.000
0.01125   0.00225   293.000   1137.797   268.000   268.000   10.720   10.720   0.000   0.000
0.01375   0.00225   293.000   1137.797   268.000   268.000   10.720   10.720   0.000   0.000
0.01625   0.00225   293.000   1137.797   268.000   268.000   10.720   10.720   0.000   0.000
0.01875   0.00225   293.000   1137.797   268.000   268.000   10.720   10.720   0.000   0.000
0.02125   0.00225   293.000   1137.797   268.000   268.000   10.720   10.720   0.000   0.000
0.02375   0.00225   293.000   1137.797   268.000   268.000   10.720   10.720   0.000   0.000
0.02625   0.00225   293.000   1137.797   268.000   268.000   10.720   10.720   0.000   0.000
0.02875   0.00225   293.000   1137.797   268.000   268.000   10.720   10.720   0.000   0.000
0.03125   0.00225   293.000   1137.797   268.000   268.000   10.720   10.720   0.000   0.000
0.03375   0.00225   293.000   1137.797   268.000   268.000   10.720   10.720   0.000   0.000
0.03625   0.00225   293.001   1137.797   268.000   268.000   10.720   10.720   0.000   0.000
0.03875   0.00225   293.005   1137.797   268.000   268.000   10.720   10.720   0.000   0.000
0.04125   0.00225   293.027   1137.797   268.000   268.000   10.720   10.720   0.000   0.000
0.04375   0.00225   293.117   1137.797   268.000   268.000   10.720   10.720   0.000   0.000
0.04625   0.00225   293.415   1137.797   268.000   268.000   10.720   10.720   0.000   0.000
0.04875   0.00225   294.188   1137.797   268.000   268.000   10.720   0.000   0.000   16.291
0.00125   0.00175   293.000   1137.797   268.000   268.000   0.000   10.720   0.000   0.000
0.00375   0.00175   293.000   1137.797   268.000   268.000   10.720   10.720   0.000   0.000
0.00625   0.00175   293.000   1137.797   268.000   268.000   10.720   10.720   0.000   0.000
0.00875   0.00175   293.000   1137.797   268.000   268.000   10.720   10.720   0.000   0.000
0.01125   0.00175   293.000   1137.797   268.000   268.000   10.720   10.720   0.000   0.000
0.01375   0.00175   293.000   1137.797   268.000   268.000   10.720   10.720   0.000   0.000
0.01625   0.00175   293.000   1137.797   268.000   268.000   10.720   10.720   0.000   0.000
0.01875   0.00175   293.000   1137.797   268.000   268.000   10.720   10.720   0.000   0.000
0.02125   0.00175   293.000   1137.797   268.000   268.000   10.720   10.720   0.000   0.000