VARIABLES = X, Y, T, ap,an,as,aw,ae,sp,su
ZONE I=20,J=20, F=POINT,t="24.704"
0.00125   0.00975   298.469   1137.797   0.000   268.000   0.000   10.720   0.000   -0.004
0.00375   0.00975   298.712   1137.797   0.000   268.000   10.720   10.720   0.000   -0.004
0.00625   0.00975   299.202   1137.797   0.000   268.000   10.720   10.720   0.000   -0.005
0.00875   0.00975   299.948   1137.797   0.000   268.000   10.720   10.720   0.000   -0.005
0.01125   0.00975   300.966   1137.797   0.000   268.000   10.720   10.720   0.000   -0.006
0.01375   0.00975   302.272   1137.797   0.000   268.000   10.720   10.720   0.000   -0.007
0.01625   0.00975   303.890   1137.797   0.000   268.000   10.720   10.720   0.000   -0.008
0.01875   0.00975   305.844   1137.797   0.000   268.000   10.720   10.720   0.000   -0.010
0.02125   0.00975   308.166   1137.797   0.000   268.000   10.720   10.720   0.000   -0.011
0.02375   0.00975   310.888   1137.797   0.000   268.000   10.720   10.720   0.000   -0.013
0.02625   0.00975   314.051   1137.797   0.000   268.000   10.720   10.720   0.000   -0.016
0.02875   0.00975   317.740   1137.797   0.000   268.000   10.720   10.720   0.000   -0.019
0.03125   0.00975   322.368   1137.797   0.000   268.000   10.720   10.720   0.000   81.057
0.03375   0.00975   326.158   1137.797   0.000   268.000   10.720   10.720   0.000   80.996
0.03625   0.00975   329.524   1137.797   0.000   268.000   10.720   10.720   0.000   80.939
0.03875   0.00975   332.544   1137.797   0.000   268.000   10.720   10.720   0.000   80.887
0.04125   0.00975   335.253   1137.797   0.000   268.000   10.720   10.720   0.000   80.840
0.04375   0.00975   337.674   1137.797   0.000   268.000   10.720   10.720   0.000   80.796
0.04625   0.00975   339.819   1137.797   0.000   268.000   10.720   10.720   0.000   80.757
0.04875   0.00975   341.675   1137.797   0.000   268.000   10.720   0.000   0.000   96.874
0.00125   0.00925   298.468   1137.797   268.000   268.000   0.000   10.720   0.000   0.000
0.00375   0.00925   298.710   1137.797   268.000   268.000   10.720   10.720   0.000   0.000
0.00625   0.00925   299.200   1137.797   268.000   268.000   10.720   10.720   0.000   0.000
0.00875   0.00925   299.947   1137.797   268.000   268.000   10.720   10.720   0.000   0.000
0.01125   0.00925   300.964   1137.797   268.000   268.000   10.720   10.720   0.000   0.000
0.01375   0.00925   302.270   1137.797   268.000   268.000   10.720   10.720   0.000   0.000
0.01625   0.00925   303.887   1137.797   268.000   268.000   10.720   10.720   0.000   0.000
0.01875   0.00925   305.842   1137.797   268.000   268.000   10.720   10.720   0.000   0.000
0.02125   0.00925   308.163   1137.797   268.000   268.000   10.720   10.720   0.000   0.000
0.02375   0.00925   310.884   1137.797   268.000   268.000   10.720   10.720   0.000   0.000
0.02625   0.00925   314.045   1137.797   268.000   268.000   10.720   10.720   0.000   0.000
0.02875   0.00925   317.718   1137.797   268.000   268.000   10.720   10.720   0.000   0.000
0.03125   0.00925   322.116   1137.797   268.000   268.000   10.720   10.720   0.000   0.000
0.03375   0.00925   325.891   1137.797   268.000   268.000   10.720   10.720   0.000   0.000
0.03625   0.00925   329.255   1137.797   268.000   268.000   10.720   10.720   0.000   0.000
0.03875   0.00925   332.274   1137.797   268.000   268.000   10.720   10.720   0.000   0.000
0.04125   0.00925   334.983   1137.797   268.000   268.000   10.720   10.720   0.000   0.000
0.04375   0.00925   337.404   1137.797   268.000   268.000   10.720   10.720   0.000   0.000
0.04625   0.00925   339.550   1137.797   268.000   268.000   10.720   10.720   0.000   0.000
0.04875   0.00925   341.408   1137.797   268.000   268.000   10.720   0.000   0.000   16.153
0.00125   0.00875   298.465   1137.797   268.000   268.000   0.000   10.720   0.000   0.000
0.00375   0.00875   298.708   1137.797   268.000   268.000   10.720   10.720   0.000   0.000
0.00625   0.00875   299.197   1137.797   268.000   268.000   10.720   10.720   0.000   0.000
0.00875   0.00875   299.944   1137.797   268.000   268.000   10.720   10.720   0.000   0.000
0.01125   0.00875   300.960   1137.797   268.000   268.000   10.720   10.720   0.000   0.000
0.01375   0.00875   302.266   1137.797   268.000   268.000   10.720   10.720   0.000   0.000
0.01625   0.00875   303.883   1137.797   268.000   268.000   10.720   10.720   0.000   0.000
0.01875   0.00875   305.837   1137.797   268.000   268.000   10.720   10.720   0.000   0.000
0.02125   0.00875   308.157   1137.797   268.000   268.000   10.720   10.720   0.000   0.000
0.02375   0.00875   310.877   1137.797   268.000   268.000   10.720   10.720   0.000   0.000
0.02625   0.00875   314.034   1137.797   268.000   268.000   10.720   10.720   0.000   0.000
0.02875   0.00875   317.683   1137.797   268.000   268.000   10.720   10.720   0.000   0.000
0.03125   0.00875   321.906   1137.797   268.000   268.000   10.720   10.720   0.000   0.000
0.03375   0.00875   325.658   1137.797   268.000   268.000   10.720   10.720   0.000   0.000
0.03625   0.00875   329.018   1137.797   268.000   268.000   10.720   10.720   0.000   0.000
0.03875   0.00875   332.036   1137.797   268.000   268.000   10.720   10.720   0.000   0.000
0.04125   0.00875   334.745   1137.797   268.000   268.000   10.720   10.720   0.000   0.000
0.04375   0.00875   337.166   1137.797   268.000   268.000   10.720   10.720   0.000   0.000
0.04625   0.00875   339.313   1137.797   268.000   268.000   10.720   10.720   0.000   0.000
0.04875   0.00875   341.177   1137.797   268.000   268.000   10.720   0.000   0.000   16.153
0.00125   0.00825   298.461   1137.797   268.000   268.000   0.000   10.720   0.000   0.000
0.00375   0.00825   298.704   1137.797   268.000   268.000   10.720   10.720   0.000   0.000
0.00625   0.00825   299.193   1137.797   268.000   268.000   10.720   10.720   0.000   0.000
0.00875   0.00825   299.939   1137.797   268.000   268.000   10.720   10.720   0.000   0.000
0.01125   0.00825   300.955   1137.797   268.000   268.000   10.720   10.720   0.000   0.000
0.01375   0.00825   302.260   1137.797   268.000   268.000   10.720   10.720   0.000   0.000
0.01625   0.00825   303.876   1137.797   268.000   268.000   10.720   10.720   0.000   0.000
0.01875   0.00825   305.829   1137.797   268.000   268.000   10.720   10.720   0.000   0.000
0.02125   0.00825   308.148   1137.797   268.000   268.000   10.720   10.720   0.000   0.000
0.02375   0.00825   310.866   1137.797   268.000   268.000   10.720   10.720   0.000   0.000
0.02625   0.00825   314.018   1137.797   268.000   268.000   10.720   10.720   0.000   0.000
0.02875   0.00825   317.642   1137.797   268.000   268.000   10.720   10.720   0.000   0.000
0.03125   0.00825   321.732   1137.797   268.000   268.000   10.720   10.720   0.000   0.000
0.03375   0.00825   325.458   1137.797   268.000   268.000   10.720   10.720   0.000   0.000
0.03625   0.00825   328.813   1137.797   268.000   268.000   10.720   10.720   0.000   0.000
0.03875   0.00825   331.830   1137.797   268.000   268.000   10.720   10.720   0.000   0.000
0.04125   0.00825   334.538   1137.797   268.000   268.000   10.720   10.720   0.000   0.000
0.04375   0.00825   336.959   1137.797   268.000   268.000   10.720   10.720   0.000   0.000
0.04625   0.00825   339.109   1137.797   268.000   268.000   10.720   10.720   0.000   0.000
0.04875   0.00825   340.981   1137.797   268.000   268.000   10.720   0.000   0.000   16.154
0.00125   0.00775   298.456   1137.797   268.000   268.000   0.000   10.720   0.000   0.000
0.00375   0.00775   298.698   1137.797   268.000   268.000   10.720   10.720   0.000   0.000
0.00625   0.00775   299.187   1137.797   268.000   268.000   10.720   10.720   0.000   0.000
0.00875   0.00775   299.932   1137.797   268.000   268.000   10.720   10.720   0.000   0.000
0.01125   0.00775   300.948   1137.797   268.000   268.000   10.720   10.720   0.000   0.000
0.01375   0.00775   302.252   1137.797   268.000   268.000   10.720   10.720   0.000   0.000
0.01625   0.00775   303.867   1137.797   268.000   268.000   10.720   10.720   0.000   0.000
0.01875   0.00775   305.819   1137.797   268.000   268.000   10.720   10.720   0.000   0.000
0.02125   0.00775   308.137   1137.797   268.000   268.000   10.720   10.720   0.000   0.000
0.02375   0.00775   310.852   1137.797   268.000   268.000   10.720   10.720   0.000   0.000
0.02625   0.00775   313.998   1137.797   268.000   268.000   10.720   10.720   0.000   0.000
0.02875   0.00775   317.598   1137.797   268.000   268.000   10.720   10.720   0.000   0.000
0.03125   0.00775   321.589   1137.797   268.000   268.000   10.720   10.720   0.000   0.000
0.03375   0.00775   325.291   1137.797   268.000   268.000   10.720   10.720   0.000   0.000
0.03625   0.00775   328.640   1137.797   268.000   268.000   10.720   10.720   0.000   0.000
0.03875   0.00775   331.655   1137.797   268.000   268.000   10.720   10.720   0.000   0.000
0.04125   0.00775   334.362   1137.797   268.000   268.000   10.720   10.720   0.000   0.000
0.04375   0.00775   336.783   1137.797   268.000   268.000   10.720   10.720   0.000   0.000
0.04625   0.00775   338.936   1137.797   268.000   268.000   10.720   10.720   0.000   0.000
0.04875   0.00775   340.820   1137.797   268.000   268.000   10.720   0.000   0.000   16.155
0.00125   0.00725   298.449   1137.797   268.000   268.000   0.000   10.720   0.000   0.000
0.00375   0.00725   298.691   1137.797   268.000   268.000   10.720   10.720   0.000   0.000
0.00625   0.00725   299.180   1137.797   268.000   268.000   10.720   10.720   0.000   0.000
0.00875   0.00725   299.925   1137.797   268.000   268.000   10.720   10.720   0.000   0.000
0.01125   0.00725   300.939   1137.797   268.000   268.000   10.720   10.720   0.000   0.000
0.01375   0.00725   302.242   1137.797   268.000   268.000   10.720   10.720   0.000   0.000
0.01625   0.00725   303.856   1137.797   268.000   268.000   10.720   10.720   0.000   0.000
0.01875   0.00725   305.806   1137.797   268.000   268.000   10.720   10.720   0.000   0.000
0.02125   0.00725   308.122   1137.797   268.000   268.000   10.720   10.720   0.000   0.000
0.02375   0.00725   310.835   1137.797   268.000   268.000   10.720   10.720   0.000   0.000
0.02625   0.00725   313.974   1137.797   268.000   268.000   10.720   10.720   0.000   0.000
0.02875   0.00725   317.554   1137.797   268.000   268.000   10.720   10.720   0.000   0.000
0.03125   0.00725   321.474   1137.797   268.000   268.000   10.720   10.720   0.000   0.000
0.03375   0.00725   325.156   1137.797   268.000   268.000   10.720   10.720   0.000   0.000
0.03625   0.00725   328.500   1137.797   268.000   268.000   10.720   10.720   0.000   0.000
0.03875   0.00725   331.512   1137.797   268.000   268.000   10.720   10.720   0.000   0.000
0.04125   0.00725   334.218   1137.797   268.000   268.000   10.720   10.720   0.000   0.000
0.04375   0.00725   336.639   1137.797   268.000   268.000   10.720   10.720   0.000   0.000
0.04625   0.00725   338.795   1137.797   268.000   268.000   10.720   10.720   0.000   0.000
0.04875   0.00725   340.696   1137.797   268.000   268.000   10.720   0.000   0.000   16.155
0.00125   0.00675   298.441   1137.797   268.000   268.000   0.000   10.720   0.000   0.000
0.00375   0.00675   298.683   1137.797   268.000   268.000   10.720   10.720   0.000   0.000
0.00625   0.00675   299.171   1137.797   268.000   268.000   10.720   10.720   0.000   0.000
0.00875   0.00675   299.915   1137.797   268.000   268.000   10.720   10.720   0.000   0.000
0.01125   0.00675   300.929   1137.797   268.000   268.000   10.720   10.720   0.000   0.000
0.01375   0.00675   302.230   1137.797   268.000   268.000   10.720   10.720   0.000   0.000
0.01625   0.00675   303.842   1137.797   268.000   268.000   10.720   10.720   0.000   0.000
0.01875   0.00675   305.791   1137.797   268.000   268.000   10.720   10.720   0.000   0.000
0.02125   0.00675   308.104   1137.797   268.000   268.000   10.720   10.720   0.000   0.000
0.02375   0.00675   310.814   1137.797   268.000   268.000   10.720   10.720   0.000   0.000
0.02625   0.00675   313.949   1137.797   268.000   268.000   10.720   10.720   0.000   0.000
0.02875   0.00675   317.512   1137.797   268.000   268.000   10.720   10.720   0.000   0.000
0.03125   0.00675   321.386   1137.797   268.000   268.000   10.720   10.720   0.000   0.000
0.03375   0.00675   325.052   1137.797   268.000   268.000   10.720   10.720   0.000   0.000
0.03625   0.00675   328.391   1137.797   268.000   268.000   10.720   10.720   0.000   0.000
0.03875   0.00675   331.401   1137.797   268.000   268.000   10.720   10.720   0.000   0.000
0.04125   0.00675   334.105   1137.797   268.000   268.000   10.720   10.720   0.000   0.000
0.04375   0.00675   336.525   1137.797   268.000   268.000   10.720   10.720   0.000   0.000
0.04625   0.00675   338.685   1137.797   268.000   268.000   10.720   10.720   0.000   0.000
0.04875   0.00675   340.608   1137.797   268.000   268.000   10.720   0.000   0.000   16.156
0.00125   0.00625   298.432   1137.797   268.000   2.085   0.000   10.720   0.000   0.000
0.00375   0.00625   298.673   1137.797   268.000   2.085   10.720   10.720   0.000   0.000
0.00625   0.00625   299.161   1137.797   268.000   2.085   10.720   10.720   0.000   0.000
0.00875   0.00625   299.904   1137.797   268.000   2.085   10.720   10.720   0.000   0.000
0.01125   0.00625   300.916   1137.797   268.000   2.085   10.720   10.720   0.000   0.000
0.01375   0.00625   302.217   1137.797   268.000   2.085   10.720   10.720   0.000   0.000
0.01625   0.00625   303.827   1137.797   268.000   2.085   10.720   10.720   0.000   0.000
0.01875   0.00625   305.773   1137.797   268.000   2.085   10.720   10.720   0.000   0.000
0.02125   0.00625   308.084   1137.797   268.000   2.085   10.720   10.720   0.000   0.000
0.02375   0.00625   310.791   1137.797   268.000   2.085   10.720   10.720   0.000   0.000
0.02625   0.00625   313.921   1137.797   268.000   2.085   10.720   10.720   0.000   0.000
0.02875   0.00625   317.474   1137.797   268.000   2.085   10.720   10.720   0.000   0.000
0.03125   0.00625   321.323   1137.797   268.000   2.085   10.720   10.720   0.000   0.000
0.03375   0.00625   324.980   1137.797   268.000   2.085   10.720   10.720   0.000   0.000
0.03625   0.00625   328.314   1137.797   268.000   2.085   10.720   10.720   0.000   0.000
0.03875   0.00625   331.321   1137.797   268.000   2.085   10.720   10.720   0.000   0.000
0.04125   0.00625   334.023   1137.797   268.000   2.085   10.720   10.720   0.000   0.000
0.04375   0.00625   336.443   1137.797   268.000   2.085   10.720   10.720   0.000   0.000
0.04625   0.00625   338.605   1137.797   268.000   2.085   10.720   10.720   0.000   0.000
0.04875   0.00625   340.558   1137.797   268.000   2.085   10.720   0.000   0.000   16.156
0.00125   0.00575   297.059   686.719   2.085   1.046   0.000   0.042   0.000   0.000
0.00375   0.00575   297.257   686.719   2.085   1.046   0.042   0.042   0.000   0.000
0.00625   0.00575   297.656   686.719   2.085   1.046   0.042   0.042   0.000   0.000
0.00875   0.00575   298.267   686.719   2.085   1.046   0.042   0.042   0.000   0.000
0.01125   0.00575   299.102   686.719   2.085   1.046   0.042   0.042   0.000   0.000
0.01375   0.00575   300.180   686.719   2.085   1.046   0.042   0.042   0.000   0.000
0.01625   0.00575   301.521   686.719   2.085   1.046   0.042   0.042   0.000   0.000
0.01875   0.00575   303.150   686.719   2.085   1.046   0.042   0.042   0.000   0.000
0.02125   0.00575   305.098   686.719   2.085   1.046   0.042   0.042   0.000   0.000
0.02375   0.00575   307.392   686.719   2.085   1.046   0.042   0.042   0.000   0.000
0.02625   0.00575   310.061   686.719   2.085   1.046   0.042   0.042   0.000   0.000
0.02875   0.00575   313.106   686.719   2.085   1.046   0.042   0.042   0.000   0.000
0.03125   0.00575   316.415   686.719   2.085   1.046   0.042   0.042   0.000   0.000
0.03375   0.00575   319.582   686.719   2.085   1.046   0.042   0.042   0.000   0.000
0.03625   0.00575   322.492   686.719   2.085   1.046   0.042   0.042   0.000   0.000
0.03875   0.00575   325.144   686.719   2.085   1.046   0.042   0.042   0.000   0.000
0.04125   0.00575   327.561   686.719   2.085   1.046   0.042   0.042   0.000   0.000
0.04375   0.00575   329.779   686.719   2.085   1.046   0.042   0.042   0.000   0.000
0.04625   0.00575   332.064   686.719   2.085   1.046   0.042   0.042   0.000   0.000
0.04875   0.00575   339.094   686.719   2.085   1.046   0.042   0.000   0.000   6.060
0.00125   0.00525   295.380   686.719   1.046   1.046   0.000   0.042   0.000   0.000
0.00375   0.00525   295.513   686.719   1.046   1.046   0.042   0.042   0.000   0.000
0.00625   0.00525   295.781   686.719   1.046   1.046   0.042   0.042   0.000   0.000
0.00875   0.00525   296.194   686.719   1.046   1.046   0.042   0.042   0.000   0.000
0.01125   0.00525   296.761   686.719   1.046   1.046   0.042   0.042   0.000   0.000
0.01375   0.00525   297.498   686.719   1.046   1.046   0.042   0.042   0.000   0.000
0.01625   0.00525   298.424   686.719   1.046   1.046   0.042   0.042   0.000   0.000
0.01875   0.00525   299.559   686.719   1.046   1.046   0.042   0.042   0.000   0.000
0.02125   0.00525   300.927   686.719   1.046   1.046   0.042   0.042   0.000   0.000
0.02375   0.00525   302.555   686.719   1.046   1.046   0.042   0.042   0.000   0.000
0.02625   0.00525   304.466   686.719   1.046   1.046   0.042   0.042   0.000   0.000
0.02875   0.00525   306.665   686.719   1.046   1.046   0.042   0.042   0.000   0.000
0.03125   0.00525   309.072   686.719   1.046   1.046   0.042   0.042   0.000   0.000
0.03375   0.00525   311.417   686.719   1.046   1.046   0.042   0.042   0.000   0.000
0.03625   0.00525   313.623   686.719   1.046   1.046   0.042   0.042   0.000   0.000
0.03875   0.00525   315.689   686.719   1.046   1.046   0.042   0.042   0.000   0.000
0.04125   0.00525   317.640   686.719   1.046   1.046   0.042   0.042   0.000   0.000
0.04375   0.00525   319.529   686.719   1.046   1.046   0.042   0.042   0.000   0.000
0.04625   0.00525   321.931   686.719   1.046   1.046   0.042   0.042   0.000   0.000
0.04875   0.00525   333.786   686.719   1.046   1.046   0.042   0.000   0.000   6.067
0.00125   0.00475   294.421   686.719   1.046   1.046   0.000   0.042   0.000   0.000
0.00375   0.00475   294.509   686.719   1.046   1.046   0.042   0.042   0.000   0.000
0.00625   0.00475   294.685   686.719   1.046   1.046   0.042   0.042   0.000   0.000
0.00875   0.00475   294.958   686.719   1.046   1.046   0.042   0.042   0.000   0.000
0.01125   0.00475   295.334   686.719   1.046   1.046   0.042   0.042   0.000   0.000
0.01375   0.00475   295.825   686.719   1.046   1.046   0.042   0.042   0.000   0.000
0.01625   0.00475   296.444   686.719   1.046   1.046   0.042   0.042   0.000   0.000
0.01875   0.00475   297.208   686.719   1.046   1.046   0.042   0.042   0.000   0.000
0.02125   0.00475   298.133   686.719   1.046   1.046   0.042   0.042   0.000   0.000
0.02375   0.00475   299.240   686.719   1.046   1.046   0.042   0.042   0.000   0.000
0.02625   0.00475   300.546   686.719   1.046   1.046   0.042   0.042   0.000   0.000
0.02875   0.00475   302.056   686.719   1.046   1.046   0.042   0.042   0.000   0.000
0.03125   0.00475   303.725   686.719   1.046   1.046   0.042   0.042   0.000   0.000
0.03375   0.00475   305.402   686.719   1.046   1.046   0.042   0.042   0.000   0.000
0.03625   0.00475   307.040   686.719   1.046   1.046   0.042   0.042   0.000   0.000
0.03875   0.00475   308.645   686.719   1.046   1.046   0.042   0.042   0.000   0.000
0.04125   0.00475   310.233   686.719   1.046   1.046   0.042   0.042   0.000   0.000
0.04375   0.00475   311.856   686.719   1.046   1.046   0.042   0.042   0.000   0.000
0.04625   0.00475   314.084   686.719   1.046   1.046   0.042   0.042   0.000   0.000
0.04875   0.00475   325.859   686.719   1.046   1.046   0.042   0.000   0.000   6.077
0.00125   0.00425   293.951   686.719   1.046   2.085   0.000   0.042   0.000   0.000
0.00375   0.00425   294.008   686.719   1.046   2.085   0.042   0.042   0.000   0.000
0.00625   0.00425   294.125   686.719   1.046   2.085   0.042   0.042   0.000   0.000
0.00875   0.00425   294.303   686.719   1.046   2.085   0.042   0.042   0.000   0.000
0.01125   0.00425   294.549   686.719   1.046   2.085   0.042   0.042   0.000   0.000
0.01375   0.00425   294.868   686.719   1.046   2.085   0.042   0.042   0.000   0.000
0.01625   0.00425   295.270   686.719   1.046   2.085   0.042   0.042   0.000   0.000
0.01875   0.00425   295.761   686.719   1.046   2.085   0.042   0.042   0.000   0.000
0.02125   0.00425   296.354   686.719   1.046   2.085   0.042   0.042   0.000   0.000
0.02375   0.00425   297.058   686.719   1.046   2.085   0.042   0.042   0.000   0.000
0.02625   0.00425   297.884   686.719   1.046   2.085   0.042   0.042   0.000   0.000
0.02875   0.00425   298.836   686.719   1.046   2.085   0.042   0.042   0.000   0.000
0.03125   0.00425   299.902   686.719   1.046   2.085   0.042   0.042   0.000   0.000
0.03375   0.00425   301.035   686.719   1.046   2.085   0.042   0.042   0.000   0.000
0.03625   0.00425   302.223   686.719   1.046   2.085   0.042   0.042   0.000   0.000
0.03875   0.00425   303.469   686.719   1.046   2.085   0.042   0.042   0.000   0.000
0.04125   0.00425   304.784   686.719   1.046   2.085   0.042   0.042   0.000   0.000
0.04375   0.00425   306.191   686.719   1.046   2.085   0.042   0.042   0.000   0.000
0.04625   0.00425   307.944   686.719   1.046   2.085   0.042   0.042   0.000   0.000
0.04875   0.00425   314.724   686.719   1.046   2.085   0.042   0.000   0.000   6.089
0.00125   0.00375   293.887   1137.797   2.085   268.000   0.000   10.720   0.000   0.000
0.00375   0.00375   293.935   1137.797   2.085   268.000   10.720   10.720   0.000   0.000
0.00625   0.00375   294.031   1137.797   2.085   268.000   10.720   10.720   0.000   0.000
0.00875   0.00375   294.178   1137.797   2.085   268.000   10.720   10.720   0.000   0.000
0.01125   0.00375   294.379   1137.797   2.085   268.000   10.720   10.720   0.000   0.000
0.01375   0.00375   294.639   1137.797   2.085   268.000   10.720   10.720   0.000   0.000
0.01625   0.00375   294.960   1137.797   2.085   268.000   10.720   10.720   0.000   0.000
0.01875   0.00375   295.350   1137.797   2.085   268.000   10.720   10.720   0.000   0.000
0.02125   0.00375   295.813   1137.797   2.085   268.000   10.720   10.720   0.000   0.000
0.02375   0.00375   296.355   1137.797   2.085   268.000   10.720   10.720   0.000   0.000
0.02625   0.00375   296.981   1137.797   2.085   268.000   10.720   10.720   0.000   0.000
0.02875   0.00375   297.696   1137.797   2.085   268.000   10.720   10.720   0.000   0.000
0.03125   0.00375   298.503   1137.797   2.085   268.000   10.720   10.720   0.000   0.000
0.03375   0.00375   299.405   1137.797   2.085   268.000   10.720   10.720   0.000   0.000
0.03625   0.00375   300.405   1137.797   2.085   268.000   10.720   10.720   0.000   0.000
0.03875   0.00375   301.506   1137.797   2.085   268.000   10.720   10.720   0.000   0.000
0.04125   0.00375   302.712   1137.797   2.085   268.000   10.720   10.720   0.000   0.000
0.04375   0.00375   304.029   1137.797   2.085   268.000   10.720   10.720   0.000   0.000
0.04625   0.00375   305.468   1137.797   2.085   268.000   10.720   10.720   0.000   0.000
0.04875   0.00375   307.067   1137.797   2.085   268.000   10.720   0.000   0.000   16.259
0.00125   0.00325   293.887   1137.797   268.000   268.000   0.000   10.720   0.000   0.000
0.00375   0.00325   293.934   1137.797   268.000   268.000   10.720   10.720   0.000   0.000
0.00625   0.00325   294.030   1137.797   268.000   268.000   10.720   10.720   0.000   0.000
0.00875   0.00325   294.177   1137.797   268.000   268.000   10.720   10.720   0.000   0.000
0.01125   0.00325   294.378   1137.797   268.000   268.000   10.720   10.720   0.000   0.000
0.01375   0.00325   294.637   1137.797   268.000   268.000   10.720   10.720   0.000   0.000
0.01625   0.00325   294.958   1137.797   268.000   268.000   10.720   10.720   0.000   0.000
0.01875   0.00325   295.347   1137.797   268.000   268.000   10.720   10.720   0.000   0.000
0.02125   0.00325   295.809   1137.797   268.000   268.000   10.720   10.720   0.000   0.000
0.02375   0.00325   296.350   1137.797   268.000   268.000   10.720   10.720   0.000   0.000
0.02625   0.00325   296.975   1137.797   268.000   268.000   10.720   10.720   0.000   0.000
0.02875   0.00325   297.688   1137.797   268.000   268.000   10.720   10.720   0.000   0.000
0.03125   0.00325   298.494   1137.797   268.000   268.000   10.720   10.720   0.000   0.000
0.03375   0.00325   299.394   1137.797   268.000   268.000   10.720   10.720   0.000   0.000
0.03625   0.00325   300.393   1137.797   268.000   268.000   10.720   10.720   0.000   0.000
0.03875   0.00325   301.493   1137.797   268.000   268.000   10.720   10.720   0.000   0.000
0.04125   0.00325   302.698   1137.797   268.000   268.000   10.720   10.720   0.000   0.000
0.04375   0.00325   304.014   1137.797   268.000   268.000   10.720   10.720   0.000   0.000
0.04625   0.00325   305.449   1137.797   268.000   268.000   10.720   10.720   0.000   0.000
0.04875   0.00325   307.017   1137.797   268.000   268.000   10.720   0.000   0.000   16.259
0.00125   0.00275   293.886   1137.797   268.000   268.000   0.000   10.720   0.000   0.000
0.00375   0.00275   293.934   1137.797   268.000   268.000   10.720   10.720   0.000   0.000
0.00625   0.00275   294.030   1137.797   268.000   268.000   10.720   10.720   0.000   0.000
0.00875   0.00275   294.177   1137.797   268.000   268.000   10.720   10.720   0.000   0.000
0.01125   0.00275   294.377   1137.797   268.000   268.000   10.720   10.720   0.000   0.000
0.01375   0.00275   294.636   1137.797   268.000   268.000   10.720   10.720   0.000   0.000
0.01625   0.00275   294.956   1137.797   268.000   268.000   10.720   10.720   0.000   0.000
0.01875   0.00275   295.345   1137.797   268.000   268.000   10.720   10.720   0.000   0.000
0.02125   0.00275   295.806   1137.797   268.000   268.000   10.720   10.720   0.000   0.000
0.02375   0.00275   296.346   1137.797   268.000   268.000   10.720   10.720   0.000   0.000
0.02625   0.00275   296.970   1137.797   268.000   268.000   10.720   10.720   0.000   0.000
0.02875   0.00275   297.682   1137.797   268.000   268.000   10.720   10.720   0.000   0.000
0.03125   0.00275   298.486   1137.797   268.000   268.000   10.720   10.720   0.000   0.000
0.03375   0.00275   299.385   1137.797   268.000   268.000   10.720   10.720   0.000   0.000
0.03625   0.00275   300.382   1137.797   268.000   268.000   10.720   10.720   0.000   0.000
0.03875   0.00275   301.481   1137.797   268.000   268.000   10.720   10.720   0.000   0.000
0.04125   0.00275   302.686   1137.797   268.000   268.000   10.720   10.720   0.000   0.000
0.04375   0.00275   304.001   1137.797   268.000   268.000   10.720   10.720   0.000   0.000
0.04625   0.00275   305.431   1137.797   268.000   268.000   10.720   10.720   0.000   0.000
0.04875   0.00275   306.977   1137.797   268.000   268.000   10.720   0.000   0.000   16.259
0.00125   0.00225   293.886   1137.797   268.000   268.000   0.000   10.720   0.000   0.000
0.00375   0.00225   293.933   1137.797   268.000   268.000   10.720   10.720   0.000   0.000
0.00625   0.00225   294.029   1137.797   268.000   268.000   10.720   10.720   0.000   0.000
0.00875   0.00225   294.176   1137.797   268.000   268.000   10.720   10.720   0.000   0.000
0.01125   0.00225   294.377   1137.797   268.000   268.000   10.720   10.720   0.000   0.000
0.01375   0.00225   294.635   1137.797   268.000   268.000   10.720   10.720   0.000   0.000
0.01625   0.00225   294.955   1137.797   268.000   268.000   10.720   10.720   0.000   0.000
0.01875   0.00225   295.343   1137.797   268.000   268.000   10.720   10.720   0.000   0.000
0.02125   0.00225   295.803   1137.797   268.000   268.000   10.720   10.720   0.000   0.000
0.02375   0.00225   296.343   1137.797   268.000   268.000   10.720   10.720   0.000   0.000
0.02625   0.00225   296.965   1137.797   268.000   268.000   10.720   10.720   0.000   0.000
0.02875   0.00225   297.676   1137.797   268.000   268.000   10.720   10.720   0.000   0.000
0.03125   0.00225   298.479   1137.797   268.000   268.000   10.720   10.720   0.000   0.000
0.03375   0.00225   299.377   1137.797   268.000   268.000   10.720   10.720   0.000   0.000
0.03625   0.00225   300.373   1137.797   268.000   268.000   10.720   10.720   0.000   0.000
0.03875   0.00225   301.472   1137.797   268.000   268.000   10.720   10.720   0.000   0.000
0.04125   0.00225   302.676   1137.797   268.000   268.000   10.720   10.720   0.000   0.000
0.04375   0.00225   303.990   1137.797   268.000   268.000   10.720   10.720   0.000   0.000
0.04625   0.00225   305.416   1137.797   268.000   268.000   10.720   10.720   0.000   0.000
0.04875   0.00225   306.944   1137.797   268.000   268.000   10.720   0.000   0.000   16.259
0.00125   0.00175   293.886   1137.797   268.000   268.000   0.000   10.720   0.000   0.000
0.00375   0.00175   293.933   1137.797   268.000   268.000   10.720   10.720   0.000   0.000
0.00625   0.00175   294.029   1137.797   268.000   268.000   10.720   10.720   0.000   0.000
0.00875   0.00175   294.176   1137.797   268.000   268.000   10.720   10.720   0.000   0.000
0.01125   0.00175   294.376   1137.797   268.000   268.000   10.720   10.720   0.000   0.000
0.01375   0.00175   294.634   1137.797   268.000   268.000   10.720   10.720   0.000   0.000
0.01625   0.00175   294.954   1137.797   268.000   268.000   10.720   10.720   0.000   0.000
0.01875   0.00175   295.341   1137.797   268.000   268.000   10.720   10.720   0.000   0.000
0.02125   0.00175   295.801   1137.797   268.000   268.000   10.720   10.720   0.000   0.000