VARIABLES = X, Y, T, ap,an,as,aw,ae,sp,su
ZONE I=20,J=20, F=POINT,t="16.432"
0.00125   0.00975   295.022   1137.797   0.000   268.000   0.000   10.720   0.000   -0.002
0.00375   0.00975   295.178   1137.797   0.000   268.000   10.720   10.720   0.000   -0.002
0.00625   0.00975   295.496   1137.797   0.000   268.000   10.720   10.720   0.000   -0.002
0.00875   0.00975   295.988   1137.797   0.000   268.000   10.720   10.720   0.000   -0.002
0.01125   0.00975   296.673   1137.797   0.000   268.000   10.720   10.720   0.000   -0.003
0.01375   0.00975   297.575   1137.797   0.000   268.000   10.720   10.720   0.000   -0.003
0.01625   0.00975   298.724   1137.797   0.000   268.000   10.720   10.720   0.000   -0.004
0.01875   0.00975   300.156   1137.797   0.000   268.000   10.720   10.720   0.000   -0.005
0.02125   0.00975   301.911   1137.797   0.000   268.000   10.720   10.720   0.000   -0.007
0.02375   0.00975   304.036   1137.797   0.000   268.000   10.720   10.720   0.000   -0.008
0.02625   0.00975   306.585   1137.797   0.000   268.000   10.720   10.720   0.000   -0.010
0.02875   0.00975   309.657   1137.797   0.000   268.000   10.720   10.720   0.000   -0.012
0.03125   0.00975   313.684   1137.797   0.000   268.000   10.720   10.720   0.000   81.190
0.03375   0.00975   316.901   1137.797   0.000   268.000   10.720   10.720   0.000   81.142
0.03625   0.00975   319.739   1137.797   0.000   268.000   10.720   10.720   0.000   81.099
0.03875   0.00975   322.292   1137.797   0.000   268.000   10.720   10.720   0.000   81.058
0.04125   0.00975   324.608   1137.797   0.000   268.000   10.720   10.720   0.000   81.021
0.04375   0.00975   326.722   1137.797   0.000   268.000   10.720   10.720   0.000   80.986
0.04625   0.00975   328.657   1137.797   0.000   268.000   10.720   10.720   0.000   80.954
0.04875   0.00975   330.407   1137.797   0.000   268.000   10.720   0.000   0.000   97.115
0.00125   0.00925   295.022   1137.797   268.000   268.000   0.000   10.720   0.000   0.000
0.00375   0.00925   295.177   1137.797   268.000   268.000   10.720   10.720   0.000   0.000
0.00625   0.00925   295.495   1137.797   268.000   268.000   10.720   10.720   0.000   0.000
0.00875   0.00925   295.987   1137.797   268.000   268.000   10.720   10.720   0.000   0.000
0.01125   0.00925   296.672   1137.797   268.000   268.000   10.720   10.720   0.000   0.000
0.01375   0.00925   297.574   1137.797   268.000   268.000   10.720   10.720   0.000   0.000
0.01625   0.00925   298.723   1137.797   268.000   268.000   10.720   10.720   0.000   0.000
0.01875   0.00925   300.154   1137.797   268.000   268.000   10.720   10.720   0.000   0.000
0.02125   0.00925   301.909   1137.797   268.000   268.000   10.720   10.720   0.000   0.000
0.02375   0.00925   304.033   1137.797   268.000   268.000   10.720   10.720   0.000   0.000
0.02625   0.00925   306.580   1137.797   268.000   268.000   10.720   10.720   0.000   0.000
0.02875   0.00925   309.636   1137.797   268.000   268.000   10.720   10.720   0.000   0.000
0.03125   0.00925   313.432   1137.797   268.000   268.000   10.720   10.720   0.000   0.000
0.03375   0.00925   316.634   1137.797   268.000   268.000   10.720   10.720   0.000   0.000
0.03625   0.00925   319.470   1137.797   268.000   268.000   10.720   10.720   0.000   0.000
0.03875   0.00925   322.022   1137.797   268.000   268.000   10.720   10.720   0.000   0.000
0.04125   0.00925   324.338   1137.797   268.000   268.000   10.720   10.720   0.000   0.000
0.04375   0.00925   326.452   1137.797   268.000   268.000   10.720   10.720   0.000   0.000
0.04625   0.00925   328.388   1137.797   268.000   268.000   10.720   10.720   0.000   0.000
0.04875   0.00925   330.140   1137.797   268.000   268.000   10.720   0.000   0.000   16.191
0.00125   0.00875   295.020   1137.797   268.000   268.000   0.000   10.720   0.000   0.000
0.00375   0.00875   295.176   1137.797   268.000   268.000   10.720   10.720   0.000   0.000
0.00625   0.00875   295.493   1137.797   268.000   268.000   10.720   10.720   0.000   0.000
0.00875   0.00875   295.985   1137.797   268.000   268.000   10.720   10.720   0.000   0.000
0.01125   0.00875   296.670   1137.797   268.000   268.000   10.720   10.720   0.000   0.000
0.01375   0.00875   297.571   1137.797   268.000   268.000   10.720   10.720   0.000   0.000
0.01625   0.00875   298.720   1137.797   268.000   268.000   10.720   10.720   0.000   0.000
0.01875   0.00875   300.151   1137.797   268.000   268.000   10.720   10.720   0.000   0.000
0.02125   0.00875   301.905   1137.797   268.000   268.000   10.720   10.720   0.000   0.000
0.02375   0.00875   304.027   1137.797   268.000   268.000   10.720   10.720   0.000   0.000
0.02625   0.00875   306.570   1137.797   268.000   268.000   10.720   10.720   0.000   0.000
0.02875   0.00875   309.603   1137.797   268.000   268.000   10.720   10.720   0.000   0.000
0.03125   0.00875   313.223   1137.797   268.000   268.000   10.720   10.720   0.000   0.000
0.03375   0.00875   316.402   1137.797   268.000   268.000   10.720   10.720   0.000   0.000
0.03625   0.00875   319.234   1137.797   268.000   268.000   10.720   10.720   0.000   0.000
0.03875   0.00875   321.784   1137.797   268.000   268.000   10.720   10.720   0.000   0.000
0.04125   0.00875   324.099   1137.797   268.000   268.000   10.720   10.720   0.000   0.000
0.04375   0.00875   326.214   1137.797   268.000   268.000   10.720   10.720   0.000   0.000
0.04625   0.00875   328.151   1137.797   268.000   268.000   10.720   10.720   0.000   0.000
0.04875   0.00875   329.909   1137.797   268.000   268.000   10.720   0.000   0.000   16.192
0.00125   0.00825   295.018   1137.797   268.000   268.000   0.000   10.720   0.000   0.000
0.00375   0.00825   295.174   1137.797   268.000   268.000   10.720   10.720   0.000   0.000
0.00625   0.00825   295.491   1137.797   268.000   268.000   10.720   10.720   0.000   0.000
0.00875   0.00825   295.983   1137.797   268.000   268.000   10.720   10.720   0.000   0.000
0.01125   0.00825   296.666   1137.797   268.000   268.000   10.720   10.720   0.000   0.000
0.01375   0.00825   297.567   1137.797   268.000   268.000   10.720   10.720   0.000   0.000
0.01625   0.00825   298.715   1137.797   268.000   268.000   10.720   10.720   0.000   0.000
0.01875   0.00825   300.145   1137.797   268.000   268.000   10.720   10.720   0.000   0.000
0.02125   0.00825   301.898   1137.797   268.000   268.000   10.720   10.720   0.000   0.000
0.02375   0.00825   304.018   1137.797   268.000   268.000   10.720   10.720   0.000   0.000
0.02625   0.00825   306.556   1137.797   268.000   268.000   10.720   10.720   0.000   0.000
0.02875   0.00825   309.563   1137.797   268.000   268.000   10.720   10.720   0.000   0.000
0.03125   0.00825   313.051   1137.797   268.000   268.000   10.720   10.720   0.000   0.000
0.03375   0.00825   316.204   1137.797   268.000   268.000   10.720   10.720   0.000   0.000
0.03625   0.00825   319.030   1137.797   268.000   268.000   10.720   10.720   0.000   0.000
0.03875   0.00825   321.579   1137.797   268.000   268.000   10.720   10.720   0.000   0.000
0.04125   0.00825   323.893   1137.797   268.000   268.000   10.720   10.720   0.000   0.000
0.04375   0.00825   326.008   1137.797   268.000   268.000   10.720   10.720   0.000   0.000
0.04625   0.00825   327.947   1137.797   268.000   268.000   10.720   10.720   0.000   0.000
0.04875   0.00825   329.714   1137.797   268.000   268.000   10.720   0.000   0.000   16.193
0.00125   0.00775   295.016   1137.797   268.000   268.000   0.000   10.720   0.000   0.000
0.00375   0.00775   295.171   1137.797   268.000   268.000   10.720   10.720   0.000   0.000
0.00625   0.00775   295.488   1137.797   268.000   268.000   10.720   10.720   0.000   0.000
0.00875   0.00775   295.979   1137.797   268.000   268.000   10.720   10.720   0.000   0.000
0.01125   0.00775   296.662   1137.797   268.000   268.000   10.720   10.720   0.000   0.000
0.01375   0.00775   297.562   1137.797   268.000   268.000   10.720   10.720   0.000   0.000
0.01625   0.00775   298.709   1137.797   268.000   268.000   10.720   10.720   0.000   0.000
0.01875   0.00775   300.138   1137.797   268.000   268.000   10.720   10.720   0.000   0.000
0.02125   0.00775   301.889   1137.797   268.000   268.000   10.720   10.720   0.000   0.000
0.02375   0.00775   304.007   1137.797   268.000   268.000   10.720   10.720   0.000   0.000
0.02625   0.00775   306.538   1137.797   268.000   268.000   10.720   10.720   0.000   0.000
0.02875   0.00775   309.522   1137.797   268.000   268.000   10.720   10.720   0.000   0.000
0.03125   0.00775   312.910   1137.797   268.000   268.000   10.720   10.720   0.000   0.000
0.03375   0.00775   316.039   1137.797   268.000   268.000   10.720   10.720   0.000   0.000
0.03625   0.00775   318.859   1137.797   268.000   268.000   10.720   10.720   0.000   0.000
0.03875   0.00775   321.406   1137.797   268.000   268.000   10.720   10.720   0.000   0.000
0.04125   0.00775   323.719   1137.797   268.000   268.000   10.720   10.720   0.000   0.000
0.04375   0.00775   325.833   1137.797   268.000   268.000   10.720   10.720   0.000   0.000
0.04625   0.00775   327.776   1137.797   268.000   268.000   10.720   10.720   0.000   0.000
0.04875   0.00775   329.554   1137.797   268.000   268.000   10.720   0.000   0.000   16.193
0.00125   0.00725   295.012   1137.797   268.000   268.000   0.000   10.720   0.000   0.000
0.00375   0.00725   295.168   1137.797   268.000   268.000   10.720   10.720   0.000   0.000
0.00625   0.00725   295.484   1137.797   268.000   268.000   10.720   10.720   0.000   0.000
0.00875   0.00725   295.975   1137.797   268.000   268.000   10.720   10.720   0.000   0.000
0.01125   0.00725   296.657   1137.797   268.000   268.000   10.720   10.720   0.000   0.000
0.01375   0.00725   297.556   1137.797   268.000   268.000   10.720   10.720   0.000   0.000
0.01625   0.00725   298.702   1137.797   268.000   268.000   10.720   10.720   0.000   0.000
0.01875   0.00725   300.129   1137.797   268.000   268.000   10.720   10.720   0.000   0.000
0.02125   0.00725   301.878   1137.797   268.000   268.000   10.720   10.720   0.000   0.000
0.02375   0.00725   303.993   1137.797   268.000   268.000   10.720   10.720   0.000   0.000
0.02625   0.00725   306.519   1137.797   268.000   268.000   10.720   10.720   0.000   0.000
0.02875   0.00725   309.481   1137.797   268.000   268.000   10.720   10.720   0.000   0.000
0.03125   0.00725   312.799   1137.797   268.000   268.000   10.720   10.720   0.000   0.000
0.03375   0.00725   315.907   1137.797   268.000   268.000   10.720   10.720   0.000   0.000
0.03625   0.00725   318.721   1137.797   268.000   268.000   10.720   10.720   0.000   0.000
0.03875   0.00725   321.266   1137.797   268.000   268.000   10.720   10.720   0.000   0.000
0.04125   0.00725   323.577   1137.797   268.000   268.000   10.720   10.720   0.000   0.000
0.04375   0.00725   325.691   1137.797   268.000   268.000   10.720   10.720   0.000   0.000
0.04625   0.00725   327.636   1137.797   268.000   268.000   10.720   10.720   0.000   0.000
0.04875   0.00725   329.431   1137.797   268.000   268.000   10.720   0.000   0.000   16.194
0.00125   0.00675   295.009   1137.797   268.000   268.000   0.000   10.720   0.000   0.000
0.00375   0.00675   295.164   1137.797   268.000   268.000   10.720   10.720   0.000   0.000
0.00625   0.00675   295.480   1137.797   268.000   268.000   10.720   10.720   0.000   0.000
0.00875   0.00675   295.969   1137.797   268.000   268.000   10.720   10.720   0.000   0.000
0.01125   0.00675   296.651   1137.797   268.000   268.000   10.720   10.720   0.000   0.000
0.01375   0.00675   297.549   1137.797   268.000   268.000   10.720   10.720   0.000   0.000
0.01625   0.00675   298.693   1137.797   268.000   268.000   10.720   10.720   0.000   0.000
0.01875   0.00675   300.118   1137.797   268.000   268.000   10.720   10.720   0.000   0.000
0.02125   0.00675   301.865   1137.797   268.000   268.000   10.720   10.720   0.000   0.000
0.02375   0.00675   303.977   1137.797   268.000   268.000   10.720   10.720   0.000   0.000
0.02625   0.00675   306.497   1137.797   268.000   268.000   10.720   10.720   0.000   0.000
0.02875   0.00675   309.444   1137.797   268.000   268.000   10.720   10.720   0.000   0.000
0.03125   0.00675   312.715   1137.797   268.000   268.000   10.720   10.720   0.000   0.000
0.03375   0.00675   315.807   1137.797   268.000   268.000   10.720   10.720   0.000   0.000
0.03625   0.00675   318.616   1137.797   268.000   268.000   10.720   10.720   0.000   0.000
0.03875   0.00675   321.157   1137.797   268.000   268.000   10.720   10.720   0.000   0.000
0.04125   0.00675   323.467   1137.797   268.000   268.000   10.720   10.720   0.000   0.000
0.04375   0.00675   325.580   1137.797   268.000   268.000   10.720   10.720   0.000   0.000
0.04625   0.00675   327.528   1137.797   268.000   268.000   10.720   10.720   0.000   0.000
0.04875   0.00675   329.345   1137.797   268.000   268.000   10.720   0.000   0.000   16.194
0.00125   0.00625   295.004   1137.797   268.000   2.085   0.000   10.720   0.000   0.000
0.00375   0.00625   295.159   1137.797   268.000   2.085   10.720   10.720   0.000   0.000
0.00625   0.00625   295.474   1137.797   268.000   2.085   10.720   10.720   0.000   0.000
0.00875   0.00625   295.963   1137.797   268.000   2.085   10.720   10.720   0.000   0.000
0.01125   0.00625   296.643   1137.797   268.000   2.085   10.720   10.720   0.000   0.000
0.01375   0.00625   297.540   1137.797   268.000   2.085   10.720   10.720   0.000   0.000
0.01625   0.00625   298.682   1137.797   268.000   2.085   10.720   10.720   0.000   0.000
0.01875   0.00625   300.105   1137.797   268.000   2.085   10.720   10.720   0.000   0.000
0.02125   0.00625   301.850   1137.797   268.000   2.085   10.720   10.720   0.000   0.000
0.02375   0.00625   303.959   1137.797   268.000   2.085   10.720   10.720   0.000   0.000
0.02625   0.00625   306.474   1137.797   268.000   2.085   10.720   10.720   0.000   0.000
0.02875   0.00625   309.410   1137.797   268.000   2.085   10.720   10.720   0.000   0.000
0.03125   0.00625   312.656   1137.797   268.000   2.085   10.720   10.720   0.000   0.000
0.03375   0.00625   315.738   1137.797   268.000   2.085   10.720   10.720   0.000   0.000
0.03625   0.00625   318.543   1137.797   268.000   2.085   10.720   10.720   0.000   0.000
0.03875   0.00625   321.081   1137.797   268.000   2.085   10.720   10.720   0.000   0.000
0.04125   0.00625   323.389   1137.797   268.000   2.085   10.720   10.720   0.000   0.000
0.04375   0.00625   325.500   1137.797   268.000   2.085   10.720   10.720   0.000   0.000
0.04625   0.00625   327.450   1137.797   268.000   2.085   10.720   10.720   0.000   0.000
0.04875   0.00625   329.297   1137.797   268.000   2.085   10.720   0.000   0.000   16.194
0.00125   0.00575   294.337   686.719   2.085   1.046   0.000   0.042   0.000   0.000
0.00375   0.00575   294.452   686.719   2.085   1.046   0.042   0.042   0.000   0.000
0.00625   0.00575   294.688   686.719   2.085   1.046   0.042   0.042   0.000   0.000
0.00875   0.00575   295.055   686.719   2.085   1.046   0.042   0.042   0.000   0.000
0.01125   0.00575   295.569   686.719   2.085   1.046   0.042   0.042   0.000   0.000
0.01375   0.00575   296.254   686.719   2.085   1.046   0.042   0.042   0.000   0.000
0.01625   0.00575   297.136   686.719   2.085   1.046   0.042   0.042   0.000   0.000
0.01875   0.00575   298.248   686.719   2.085   1.046   0.042   0.042   0.000   0.000
0.02125   0.00575   299.627   686.719   2.085   1.046   0.042   0.042   0.000   0.000
0.02375   0.00575   301.314   686.719   2.085   1.046   0.042   0.042   0.000   0.000
0.02625   0.00575   303.349   686.719   2.085   1.046   0.042   0.042   0.000   0.000
0.02875   0.00575   305.748   686.719   2.085   1.046   0.042   0.042   0.000   0.000
0.03125   0.00575   308.417   686.719   2.085   1.046   0.042   0.042   0.000   0.000
0.03375   0.00575   310.968   686.719   2.085   1.046   0.042   0.042   0.000   0.000
0.03625   0.00575   313.303   686.719   2.085   1.046   0.042   0.042   0.000   0.000
0.03875   0.00575   315.440   686.719   2.085   1.046   0.042   0.042   0.000   0.000
0.04125   0.00575   317.416   686.719   2.085   1.046   0.042   0.042   0.000   0.000
0.04375   0.00575   319.280   686.719   2.085   1.046   0.042   0.042   0.000   0.000
0.04625   0.00575   321.297   686.719   2.085   1.046   0.042   0.042   0.000   0.000
0.04875   0.00575   328.139   686.719   2.085   1.046   0.042   0.000   0.000   6.074
0.00125   0.00525   293.646   686.719   1.046   1.046   0.000   0.042   0.000   0.000
0.00375   0.00525   293.711   686.719   1.046   1.046   0.042   0.042   0.000   0.000
0.00625   0.00525   293.844   686.719   1.046   1.046   0.042   0.042   0.000   0.000
0.00875   0.00525   294.055   686.719   1.046   1.046   0.042   0.042   0.000   0.000
0.01125   0.00525   294.355   686.719   1.046   1.046   0.042   0.042   0.000   0.000
0.01375   0.00525   294.760   686.719   1.046   1.046   0.042   0.042   0.000   0.000
0.01625   0.00525   295.292   686.719   1.046   1.046   0.042   0.042   0.000   0.000
0.01875   0.00525   295.975   686.719   1.046   1.046   0.042   0.042   0.000   0.000
0.02125   0.00525   296.838   686.719   1.046   1.046   0.042   0.042   0.000   0.000
0.02375   0.00525   297.917   686.719   1.046   1.046   0.042   0.042   0.000   0.000
0.02625   0.00525   299.242   686.719   1.046   1.046   0.042   0.042   0.000   0.000
0.02875   0.00525   300.832   686.719   1.046   1.046   0.042   0.042   0.000   0.000
0.03125   0.00525   302.624   686.719   1.046   1.046   0.042   0.042   0.000   0.000
0.03375   0.00525   304.368   686.719   1.046   1.046   0.042   0.042   0.000   0.000
0.03625   0.00525   306.005   686.719   1.046   1.046   0.042   0.042   0.000   0.000
0.03875   0.00525   307.553   686.719   1.046   1.046   0.042   0.042   0.000   0.000
0.04125   0.00525   309.051   686.719   1.046   1.046   0.042   0.042   0.000   0.000
0.04375   0.00525   310.563   686.719   1.046   1.046   0.042   0.042   0.000   0.000
0.04625   0.00525   312.648   686.719   1.046   1.046   0.042   0.042   0.000   0.000
0.04875   0.00525   324.211   686.719   1.046   1.046   0.042   0.000   0.000   6.079
0.00125   0.00475   293.318   686.719   1.046   1.046   0.000   0.042   0.000   0.000
0.00375   0.00475   293.354   686.719   1.046   1.046   0.042   0.042   0.000   0.000
0.00625   0.00475   293.430   686.719   1.046   1.046   0.042   0.042   0.000   0.000
0.00875   0.00475   293.550   686.719   1.046   1.046   0.042   0.042   0.000   0.000
0.01125   0.00475   293.723   686.719   1.046   1.046   0.042   0.042   0.000   0.000
0.01375   0.00475   293.961   686.719   1.046   1.046   0.042   0.042   0.000   0.000
0.01625   0.00475   294.276   686.719   1.046   1.046   0.042   0.042   0.000   0.000
0.01875   0.00475   294.688   686.719   1.046   1.046   0.042   0.042   0.000   0.000
0.02125   0.00475   295.218   686.719   1.046   1.046   0.042   0.042   0.000   0.000
0.02375   0.00475   295.888   686.719   1.046   1.046   0.042   0.042   0.000   0.000
0.02625   0.00475   296.725   686.719   1.046   1.046   0.042   0.042   0.000   0.000
0.02875   0.00475   297.742   686.719   1.046   1.046   0.042   0.042   0.000   0.000
0.03125   0.00475   298.909   686.719   1.046   1.046   0.042   0.042   0.000   0.000
0.03375   0.00475   300.091   686.719   1.046   1.046   0.042   0.042   0.000   0.000
0.03625   0.00475   301.259   686.719   1.046   1.046   0.042   0.042   0.000   0.000
0.03875   0.00475   302.431   686.719   1.046   1.046   0.042   0.042   0.000   0.000
0.04125   0.00475   303.639   686.719   1.046   1.046   0.042   0.042   0.000   0.000
0.04375   0.00475   304.940   686.719   1.046   1.046   0.042   0.042   0.000   0.000
0.04625   0.00475   306.888   686.719   1.046   1.046   0.042   0.042   0.000   0.000
0.04875   0.00475   318.388   686.719   1.046   1.046   0.042   0.000   0.000   6.085
0.00125   0.00425   293.198   686.719   1.046   2.085   0.000   0.042   0.000   0.000
0.00375   0.00425   293.221   686.719   1.046   2.085   0.042   0.042   0.000   0.000
0.00625   0.00425   293.269   686.719   1.046   2.085   0.042   0.042   0.000   0.000
0.00875   0.00425   293.345   686.719   1.046   2.085   0.042   0.042   0.000   0.000
0.01125   0.00425   293.454   686.719   1.046   2.085   0.042   0.042   0.000   0.000
0.01375   0.00425   293.604   686.719   1.046   2.085   0.042   0.042   0.000   0.000
0.01625   0.00425   293.803   686.719   1.046   2.085   0.042   0.042   0.000   0.000
0.01875   0.00425   294.061   686.719   1.046   2.085   0.042   0.042   0.000   0.000
0.02125   0.00425   294.392   686.719   1.046   2.085   0.042   0.042   0.000   0.000
0.02375   0.00425   294.810   686.719   1.046   2.085   0.042   0.042   0.000   0.000
0.02625   0.00425   295.329   686.719   1.046   2.085   0.042   0.042   0.000   0.000
0.02875   0.00425   295.962   686.719   1.046   2.085   0.042   0.042   0.000   0.000
0.03125   0.00425   296.704   686.719   1.046   2.085   0.042   0.042   0.000   0.000
0.03375   0.00425   297.520   686.719   1.046   2.085   0.042   0.042   0.000   0.000
0.03625   0.00425   298.406   686.719   1.046   2.085   0.042   0.042   0.000   0.000
0.03875   0.00425   299.377   686.719   1.046   2.085   0.042   0.042   0.000   0.000
0.04125   0.00425   300.451   686.719   1.046   2.085   0.042   0.042   0.000   0.000
0.04375   0.00425   301.658   686.719   1.046   2.085   0.042   0.042   0.000   0.000
0.04625   0.00425   303.249   686.719   1.046   2.085   0.042   0.042   0.000   0.000
0.04875   0.00425   309.890   686.719   1.046   2.085   0.042   0.000   0.000   6.094
0.00125   0.00375   293.206   1137.797   2.085   268.000   0.000   10.720   0.000   0.000
0.00375   0.00375   293.227   1137.797   2.085   268.000   10.720   10.720   0.000   0.000
0.00625   0.00375   293.271   1137.797   2.085   268.000   10.720   10.720   0.000   0.000
0.00875   0.00375   293.341   1137.797   2.085   268.000   10.720   10.720   0.000   0.000
0.01125   0.00375   293.439   1137.797   2.085   268.000   10.720   10.720   0.000   0.000
0.01375   0.00375   293.571   1137.797   2.085   268.000   10.720   10.720   0.000   0.000
0.01625   0.00375   293.744   1137.797   2.085   268.000   10.720   10.720   0.000   0.000
0.01875   0.00375   293.964   1137.797   2.085   268.000   10.720   10.720   0.000   0.000
0.02125   0.00375   294.239   1137.797   2.085   268.000   10.720   10.720   0.000   0.000
0.02375   0.00375   294.580   1137.797   2.085   268.000   10.720   10.720   0.000   0.000
0.02625   0.00375   294.995   1137.797   2.085   268.000   10.720   10.720   0.000   0.000
0.02875   0.00375   295.494   1137.797   2.085   268.000   10.720   10.720   0.000   0.000
0.03125   0.00375   296.086   1137.797   2.085   268.000   10.720   10.720   0.000   0.000
0.03375   0.00375   296.779   1137.797   2.085   268.000   10.720   10.720   0.000   0.000
0.03625   0.00375   297.583   1137.797   2.085   268.000   10.720   10.720   0.000   0.000
0.03875   0.00375   298.508   1137.797   2.085   268.000   10.720   10.720   0.000   0.000
0.04125   0.00375   299.564   1137.797   2.085   268.000   10.720   10.720   0.000   0.000
0.04375   0.00375   300.762   1137.797   2.085   268.000   10.720   10.720   0.000   0.000
0.04625   0.00375   302.117   1137.797   2.085   268.000   10.720   10.720   0.000   0.000
0.04875   0.00375   303.672   1137.797   2.085   268.000   10.720   0.000   0.000   16.268
0.00125   0.00325   293.206   1137.797   268.000   268.000   0.000   10.720   0.000   0.000
0.00375   0.00325   293.227   1137.797   268.000   268.000   10.720   10.720   0.000   0.000
0.00625   0.00325   293.271   1137.797   268.000   268.000   10.720   10.720   0.000   0.000
0.00875   0.00325   293.341   1137.797   268.000   268.000   10.720   10.720   0.000   0.000
0.01125   0.00325   293.439   1137.797   268.000   268.000   10.720   10.720   0.000   0.000
0.01375   0.00325   293.571   1137.797   268.000   268.000   10.720   10.720   0.000   0.000
0.01625   0.00325   293.743   1137.797   268.000   268.000   10.720   10.720   0.000   0.000
0.01875   0.00325   293.963   1137.797   268.000   268.000   10.720   10.720   0.000   0.000
0.02125   0.00325   294.238   1137.797   268.000   268.000   10.720   10.720   0.000   0.000
0.02375   0.00325   294.579   1137.797   268.000   268.000   10.720   10.720   0.000   0.000
0.02625   0.00325   294.993   1137.797   268.000   268.000   10.720   10.720   0.000   0.000
0.02875   0.00325   295.491   1137.797   268.000   268.000   10.720   10.720   0.000   0.000
0.03125   0.00325   296.081   1137.797   268.000   268.000   10.720   10.720   0.000   0.000
0.03375   0.00325   296.774   1137.797   268.000   268.000   10.720   10.720   0.000   0.000
0.03625   0.00325   297.577   1137.797   268.000   268.000   10.720   10.720   0.000   0.000
0.03875   0.00325   298.502   1137.797   268.000   268.000   10.720   10.720   0.000   0.000
0.04125   0.00325   299.558   1137.797   268.000   268.000   10.720   10.720   0.000   0.000
0.04375   0.00325   300.755   1137.797   268.000   268.000   10.720   10.720   0.000   0.000
0.04625   0.00325   302.107   1137.797   268.000   268.000   10.720   10.720   0.000   0.000
0.04875   0.00325   303.632   1137.797   268.000   268.000   10.720   0.000   0.000   16.268
0.00125   0.00275   293.206   1137.797   268.000   268.000   0.000   10.720   0.000   0.000
0.00375   0.00275   293.227   1137.797   268.000   268.000   10.720   10.720   0.000   0.000
0.00625   0.00275   293.271   1137.797   268.000   268.000   10.720   10.720   0.000   0.000
0.00875   0.00275   293.340   1137.797   268.000   268.000   10.720   10.720   0.000   0.000
0.01125   0.00275   293.439   1137.797   268.000   268.000   10.720   10.720   0.000   0.000
0.01375   0.00275   293.571   1137.797   268.000   268.000   10.720   10.720   0.000   0.000
0.01625   0.00275   293.743   1137.797   268.000   268.000   10.720   10.720   0.000   0.000
0.01875   0.00275   293.962   1137.797   268.000   268.000   10.720   10.720   0.000   0.000
0.02125   0.00275   294.238   1137.797   268.000   268.000   10.720   10.720   0.000   0.000
0.02375   0.00275   294.577   1137.797   268.000   268.000   10.720   10.720   0.000   0.000
0.02625   0.00275   294.991   1137.797   268.000   268.000   10.720   10.720   0.000   0.000
0.02875   0.00275   295.488   1137.797   268.000   268.000   10.720   10.720   0.000   0.000
0.03125   0.00275   296.078   1137.797   268.000   268.000   10.720   10.720   0.000   0.000
0.03375   0.00275   296.770   1137.797   268.000   268.000   10.720   10.720   0.000   0.000
0.03625   0.00275   297.573   1137.797   268.000   268.000   10.720   10.720   0.000   0.000
0.03875   0.00275   298.497   1137.797   268.000   268.000   10.720   10.720   0.000   0.000
0.04125   0.00275   299.553   1137.797   268.000   268.000   10.720   10.720   0.000   0.000
0.04375   0.00275   300.749   1137.797   268.000   268.000   10.720   10.720   0.000   0.000
0.04625   0.00275   302.097   1137.797   268.000   268.000   10.720   10.720   0.000   0.000
0.04875   0.00275   303.600   1137.797   268.000   268.000   10.720   0.000   0.000   16.268
0.00125   0.00225   293.206   1137.797   268.000   268.000   0.000   10.720   0.000   0.000
0.00375   0.00225   293.227   1137.797   268.000   268.000   10.720   10.720   0.000   0.000
0.00625   0.00225   293.271   1137.797   268.000   268.000   10.720   10.720   0.000   0.000
0.00875   0.00225   293.340   1137.797   268.000   268.000   10.720   10.720   0.000   0.000
0.01125   0.00225   293.439   1137.797   268.000   268.000   10.720   10.720   0.000   0.000
0.01375   0.00225   293.571   1137.797   268.000   268.000   10.720   10.720   0.000   0.000
0.01625   0.00225   293.743   1137.797   268.000   268.000   10.720   10.720   0.000   0.000
0.01875   0.00225   293.962   1137.797   268.000   268.000   10.720   10.720   0.000   0.000
0.02125   0.00225   294.237   1137.797   268.000   268.000   10.720   10.720   0.000   0.000
0.02375   0.00225   294.576   1137.797   268.000   268.000   10.720   10.720   0.000   0.000
0.02625   0.00225   294.989   1137.797   268.000   268.000   10.720   10.720   0.000   0.000
0.02875   0.00225   295.486   1137.797   268.000   268.000   10.720   10.720   0.000   0.000
0.03125   0.00225   296.075   1137.797   268.000   268.000   10.720   10.720   0.000   0.000
0.03375   0.00225   296.766   1137.797   268.000   268.000   10.720   10.720   0.000   0.000
0.03625   0.00225   297.569   1137.797   268.000   268.000   10.720   10.720   0.000   0.000
0.03875   0.00225   298.493   1137.797   268.000   268.000   10.720   10.720   0.000   0.000
0.04125   0.00225   299.548   1137.797   268.000   268.000   10.720   10.720   0.000   0.000
0.04375   0.00225   300.744   1137.797   268.000   268.000   10.720   10.720   0.000   0.000
0.04625   0.00225   302.088   1137.797   268.000   268.000   10.720   10.720   0.000   0.000
0.04875   0.00225   303.575   1137.797   268.000   268.000   10.720   0.000   0.000   16.268
0.00125   0.00175   293.206   1137.797   268.000   268.000   0.000   10.720   0.000   0.000
0.00375   0.00175   293.227   1137.797   268.000   268.000   10.720   10.720   0.000   0.000
0.00625   0.00175   293.271   1137.797   268.000   268.000   10.720   10.720   0.000   0.000
0.00875   0.00175   293.340   1137.797   268.000   268.000   10.720   10.720   0.000   0.000
0.01125   0.00175   293.438   1137.797   268.000   268.000   10.720   10.720   0.000   0.000
0.01375   0.00175   293.570   1137.797   268.000   268.000   10.720   10.720   0.000   0.000
0.01625   0.00175   293.742   1137.797   268.000   268.000   10.720   10.720   0.000   0.000
0.01875   0.00175   293.962   1137.797   268.000   268.000   10.720   10.720   0.000   0.000
0.02125   0.00175   294.236   1137.797   268.000   268.000   10.720   10.720   0.000   0.000