VARIABLES = X, Y, T, ap,an,as,aw,ae,sp,su
ZONE I=20,J=20, F=POINT,t="20.640"
0.00125   0.00975   296.607   1137.797   0.000   268.000   0.000   10.720   0.000   -0.003
0.00375   0.00975   296.811   1137.797   0.000   268.000   10.720   10.720   0.000   -0.003
0.00625   0.00975   297.224   1137.797   0.000   268.000   10.720   10.720   0.000   -0.003
0.00875   0.00975   297.857   1137.797   0.000   268.000   10.720   10.720   0.000   -0.004
0.01125   0.00975   298.727   1137.797   0.000   268.000   10.720   10.720   0.000   -0.004
0.01375   0.00975   299.854   1137.797   0.000   268.000   10.720   10.720   0.000   -0.005
0.01625   0.00975   301.265   1137.797   0.000   268.000   10.720   10.720   0.000   -0.006
0.01875   0.00975   302.990   1137.797   0.000   268.000   10.720   10.720   0.000   -0.007
0.02125   0.00975   305.064   1137.797   0.000   268.000   10.720   10.720   0.000   -0.009
0.02375   0.00975   307.526   1137.797   0.000   268.000   10.720   10.720   0.000   -0.011
0.02625   0.00975   310.423   1137.797   0.000   268.000   10.720   10.720   0.000   -0.013
0.02875   0.00975   313.846   1137.797   0.000   268.000   10.720   10.720   0.000   -0.016
0.03125   0.00975   318.216   1137.797   0.000   268.000   10.720   10.720   0.000   81.122
0.03375   0.00975   321.761   1137.797   0.000   268.000   10.720   10.720   0.000   81.067
0.03625   0.00975   324.902   1137.797   0.000   268.000   10.720   10.720   0.000   81.016
0.03875   0.00975   327.724   1137.797   0.000   268.000   10.720   10.720   0.000   80.970
0.04125   0.00975   330.267   1137.797   0.000   268.000   10.720   10.720   0.000   80.927
0.04375   0.00975   332.559   1137.797   0.000   268.000   10.720   10.720   0.000   80.887
0.04625   0.00975   334.615   1137.797   0.000   268.000   10.720   10.720   0.000   80.851
0.04875   0.00975   336.427   1137.797   0.000   268.000   10.720   0.000   0.000   96.989
0.00125   0.00925   296.606   1137.797   268.000   268.000   0.000   10.720   0.000   0.000
0.00375   0.00925   296.809   1137.797   268.000   268.000   10.720   10.720   0.000   0.000
0.00625   0.00925   297.223   1137.797   268.000   268.000   10.720   10.720   0.000   0.000
0.00875   0.00925   297.856   1137.797   268.000   268.000   10.720   10.720   0.000   0.000
0.01125   0.00925   298.725   1137.797   268.000   268.000   10.720   10.720   0.000   0.000
0.01375   0.00925   299.852   1137.797   268.000   268.000   10.720   10.720   0.000   0.000
0.01625   0.00925   301.263   1137.797   268.000   268.000   10.720   10.720   0.000   0.000
0.01875   0.00925   302.988   1137.797   268.000   268.000   10.720   10.720   0.000   0.000
0.02125   0.00925   305.062   1137.797   268.000   268.000   10.720   10.720   0.000   0.000
0.02375   0.00925   307.522   1137.797   268.000   268.000   10.720   10.720   0.000   0.000
0.02625   0.00925   310.417   1137.797   268.000   268.000   10.720   10.720   0.000   0.000
0.02875   0.00925   313.824   1137.797   268.000   268.000   10.720   10.720   0.000   0.000
0.03125   0.00925   317.964   1137.797   268.000   268.000   10.720   10.720   0.000   0.000
0.03375   0.00925   321.494   1137.797   268.000   268.000   10.720   10.720   0.000   0.000
0.03625   0.00925   324.633   1137.797   268.000   268.000   10.720   10.720   0.000   0.000
0.03875   0.00925   327.454   1137.797   268.000   268.000   10.720   10.720   0.000   0.000
0.04125   0.00925   329.997   1137.797   268.000   268.000   10.720   10.720   0.000   0.000
0.04375   0.00925   332.288   1137.797   268.000   268.000   10.720   10.720   0.000   0.000
0.04625   0.00925   334.346   1137.797   268.000   268.000   10.720   10.720   0.000   0.000
0.04875   0.00925   336.160   1137.797   268.000   268.000   10.720   0.000   0.000   16.171
0.00125   0.00875   296.604   1137.797   268.000   268.000   0.000   10.720   0.000   0.000
0.00375   0.00875   296.807   1137.797   268.000   268.000   10.720   10.720   0.000   0.000
0.00625   0.00875   297.220   1137.797   268.000   268.000   10.720   10.720   0.000   0.000
0.00875   0.00875   297.853   1137.797   268.000   268.000   10.720   10.720   0.000   0.000
0.01125   0.00875   298.722   1137.797   268.000   268.000   10.720   10.720   0.000   0.000
0.01375   0.00875   299.849   1137.797   268.000   268.000   10.720   10.720   0.000   0.000
0.01625   0.00875   301.259   1137.797   268.000   268.000   10.720   10.720   0.000   0.000
0.01875   0.00875   302.984   1137.797   268.000   268.000   10.720   10.720   0.000   0.000
0.02125   0.00875   305.056   1137.797   268.000   268.000   10.720   10.720   0.000   0.000
0.02375   0.00875   307.516   1137.797   268.000   268.000   10.720   10.720   0.000   0.000
0.02625   0.00875   310.407   1137.797   268.000   268.000   10.720   10.720   0.000   0.000
0.02875   0.00875   313.790   1137.797   268.000   268.000   10.720   10.720   0.000   0.000
0.03125   0.00875   317.754   1137.797   268.000   268.000   10.720   10.720   0.000   0.000
0.03375   0.00875   321.261   1137.797   268.000   268.000   10.720   10.720   0.000   0.000
0.03625   0.00875   324.396   1137.797   268.000   268.000   10.720   10.720   0.000   0.000
0.03875   0.00875   327.216   1137.797   268.000   268.000   10.720   10.720   0.000   0.000
0.04125   0.00875   329.758   1137.797   268.000   268.000   10.720   10.720   0.000   0.000
0.04375   0.00875   332.050   1137.797   268.000   268.000   10.720   10.720   0.000   0.000
0.04625   0.00875   334.109   1137.797   268.000   268.000   10.720   10.720   0.000   0.000
0.04875   0.00875   335.929   1137.797   268.000   268.000   10.720   0.000   0.000   16.172
0.00125   0.00825   296.601   1137.797   268.000   268.000   0.000   10.720   0.000   0.000
0.00375   0.00825   296.804   1137.797   268.000   268.000   10.720   10.720   0.000   0.000
0.00625   0.00825   297.217   1137.797   268.000   268.000   10.720   10.720   0.000   0.000
0.00875   0.00825   297.850   1137.797   268.000   268.000   10.720   10.720   0.000   0.000
0.01125   0.00825   298.718   1137.797   268.000   268.000   10.720   10.720   0.000   0.000
0.01375   0.00825   299.844   1137.797   268.000   268.000   10.720   10.720   0.000   0.000
0.01625   0.00825   301.254   1137.797   268.000   268.000   10.720   10.720   0.000   0.000
0.01875   0.00825   302.977   1137.797   268.000   268.000   10.720   10.720   0.000   0.000
0.02125   0.00825   305.048   1137.797   268.000   268.000   10.720   10.720   0.000   0.000
0.02375   0.00825   307.506   1137.797   268.000   268.000   10.720   10.720   0.000   0.000
0.02625   0.00825   310.391   1137.797   268.000   268.000   10.720   10.720   0.000   0.000
0.02875   0.00825   313.750   1137.797   268.000   268.000   10.720   10.720   0.000   0.000
0.03125   0.00825   317.581   1137.797   268.000   268.000   10.720   10.720   0.000   0.000
0.03375   0.00825   321.062   1137.797   268.000   268.000   10.720   10.720   0.000   0.000
0.03625   0.00825   324.192   1137.797   268.000   268.000   10.720   10.720   0.000   0.000
0.03875   0.00825   327.010   1137.797   268.000   268.000   10.720   10.720   0.000   0.000
0.04125   0.00825   329.552   1137.797   268.000   268.000   10.720   10.720   0.000   0.000
0.04375   0.00825   331.844   1137.797   268.000   268.000   10.720   10.720   0.000   0.000
0.04625   0.00825   333.905   1137.797   268.000   268.000   10.720   10.720   0.000   0.000
0.04875   0.00825   335.733   1137.797   268.000   268.000   10.720   0.000   0.000   16.173
0.00125   0.00775   296.597   1137.797   268.000   268.000   0.000   10.720   0.000   0.000
0.00375   0.00775   296.800   1137.797   268.000   268.000   10.720   10.720   0.000   0.000
0.00625   0.00775   297.212   1137.797   268.000   268.000   10.720   10.720   0.000   0.000
0.00875   0.00775   297.845   1137.797   268.000   268.000   10.720   10.720   0.000   0.000
0.01125   0.00775   298.713   1137.797   268.000   268.000   10.720   10.720   0.000   0.000
0.01375   0.00775   299.838   1137.797   268.000   268.000   10.720   10.720   0.000   0.000
0.01625   0.00775   301.246   1137.797   268.000   268.000   10.720   10.720   0.000   0.000
0.01875   0.00775   302.968   1137.797   268.000   268.000   10.720   10.720   0.000   0.000
0.02125   0.00775   305.038   1137.797   268.000   268.000   10.720   10.720   0.000   0.000
0.02375   0.00775   307.493   1137.797   268.000   268.000   10.720   10.720   0.000   0.000
0.02625   0.00775   310.373   1137.797   268.000   268.000   10.720   10.720   0.000   0.000
0.02875   0.00775   313.707   1137.797   268.000   268.000   10.720   10.720   0.000   0.000
0.03125   0.00775   317.439   1137.797   268.000   268.000   10.720   10.720   0.000   0.000
0.03375   0.00775   320.896   1137.797   268.000   268.000   10.720   10.720   0.000   0.000
0.03625   0.00775   324.020   1137.797   268.000   268.000   10.720   10.720   0.000   0.000
0.03875   0.00775   326.836   1137.797   268.000   268.000   10.720   10.720   0.000   0.000
0.04125   0.00775   329.377   1137.797   268.000   268.000   10.720   10.720   0.000   0.000
0.04375   0.00775   331.668   1137.797   268.000   268.000   10.720   10.720   0.000   0.000
0.04625   0.00775   333.733   1137.797   268.000   268.000   10.720   10.720   0.000   0.000
0.04875   0.00775   335.573   1137.797   268.000   268.000   10.720   0.000   0.000   16.173
0.00125   0.00725   296.592   1137.797   268.000   268.000   0.000   10.720   0.000   0.000
0.00375   0.00725   296.795   1137.797   268.000   268.000   10.720   10.720   0.000   0.000
0.00625   0.00725   297.207   1137.797   268.000   268.000   10.720   10.720   0.000   0.000
0.00875   0.00725   297.838   1137.797   268.000   268.000   10.720   10.720   0.000   0.000
0.01125   0.00725   298.705   1137.797   268.000   268.000   10.720   10.720   0.000   0.000
0.01375   0.00725   299.830   1137.797   268.000   268.000   10.720   10.720   0.000   0.000
0.01625   0.00725   301.237   1137.797   268.000   268.000   10.720   10.720   0.000   0.000
0.01875   0.00725   302.957   1137.797   268.000   268.000   10.720   10.720   0.000   0.000
0.02125   0.00725   305.025   1137.797   268.000   268.000   10.720   10.720   0.000   0.000
0.02375   0.00725   307.478   1137.797   268.000   268.000   10.720   10.720   0.000   0.000
0.02625   0.00725   310.351   1137.797   268.000   268.000   10.720   10.720   0.000   0.000
0.02875   0.00725   313.664   1137.797   268.000   268.000   10.720   10.720   0.000   0.000
0.03125   0.00725   317.326   1137.797   268.000   268.000   10.720   10.720   0.000   0.000
0.03375   0.00725   320.762   1137.797   268.000   268.000   10.720   10.720   0.000   0.000
0.03625   0.00725   323.880   1137.797   268.000   268.000   10.720   10.720   0.000   0.000
0.03875   0.00725   326.694   1137.797   268.000   268.000   10.720   10.720   0.000   0.000
0.04125   0.00725   329.233   1137.797   268.000   268.000   10.720   10.720   0.000   0.000
0.04375   0.00725   331.525   1137.797   268.000   268.000   10.720   10.720   0.000   0.000
0.04625   0.00725   333.593   1137.797   268.000   268.000   10.720   10.720   0.000   0.000
0.04875   0.00725   335.450   1137.797   268.000   268.000   10.720   0.000   0.000   16.174
0.00125   0.00675   296.586   1137.797   268.000   268.000   0.000   10.720   0.000   0.000
0.00375   0.00675   296.789   1137.797   268.000   268.000   10.720   10.720   0.000   0.000
0.00625   0.00675   297.200   1137.797   268.000   268.000   10.720   10.720   0.000   0.000
0.00875   0.00675   297.831   1137.797   268.000   268.000   10.720   10.720   0.000   0.000
0.01125   0.00675   298.697   1137.797   268.000   268.000   10.720   10.720   0.000   0.000
0.01375   0.00675   299.820   1137.797   268.000   268.000   10.720   10.720   0.000   0.000
0.01625   0.00675   301.225   1137.797   268.000   268.000   10.720   10.720   0.000   0.000
0.01875   0.00675   302.944   1137.797   268.000   268.000   10.720   10.720   0.000   0.000
0.02125   0.00675   305.010   1137.797   268.000   268.000   10.720   10.720   0.000   0.000
0.02375   0.00675   307.459   1137.797   268.000   268.000   10.720   10.720   0.000   0.000
0.02625   0.00675   310.327   1137.797   268.000   268.000   10.720   10.720   0.000   0.000
0.02875   0.00675   313.624   1137.797   268.000   268.000   10.720   10.720   0.000   0.000
0.03125   0.00675   317.239   1137.797   268.000   268.000   10.720   10.720   0.000   0.000
0.03375   0.00675   320.660   1137.797   268.000   268.000   10.720   10.720   0.000   0.000
0.03625   0.00675   323.773   1137.797   268.000   268.000   10.720   10.720   0.000   0.000
0.03875   0.00675   326.585   1137.797   268.000   268.000   10.720   10.720   0.000   0.000
0.04125   0.00675   329.122   1137.797   268.000   268.000   10.720   10.720   0.000   0.000
0.04375   0.00675   331.412   1137.797   268.000   268.000   10.720   10.720   0.000   0.000
0.04625   0.00675   333.483   1137.797   268.000   268.000   10.720   10.720   0.000   0.000
0.04875   0.00675   335.363   1137.797   268.000   268.000   10.720   0.000   0.000   16.174
0.00125   0.00625   296.579   1137.797   268.000   2.085   0.000   10.720   0.000   0.000
0.00375   0.00625   296.781   1137.797   268.000   2.085   10.720   10.720   0.000   0.000
0.00625   0.00625   297.192   1137.797   268.000   2.085   10.720   10.720   0.000   0.000
0.00875   0.00625   297.822   1137.797   268.000   2.085   10.720   10.720   0.000   0.000
0.01125   0.00625   298.687   1137.797   268.000   2.085   10.720   10.720   0.000   0.000
0.01375   0.00625   299.808   1137.797   268.000   2.085   10.720   10.720   0.000   0.000
0.01625   0.00625   301.212   1137.797   268.000   2.085   10.720   10.720   0.000   0.000
0.01875   0.00625   302.928   1137.797   268.000   2.085   10.720   10.720   0.000   0.000
0.02125   0.00625   304.992   1137.797   268.000   2.085   10.720   10.720   0.000   0.000
0.02375   0.00625   307.438   1137.797   268.000   2.085   10.720   10.720   0.000   0.000
0.02625   0.00625   310.301   1137.797   268.000   2.085   10.720   10.720   0.000   0.000
0.02875   0.00625   313.589   1137.797   268.000   2.085   10.720   10.720   0.000   0.000
0.03125   0.00625   317.179   1137.797   268.000   2.085   10.720   10.720   0.000   0.000
0.03375   0.00625   320.589   1137.797   268.000   2.085   10.720   10.720   0.000   0.000
0.03625   0.00625   323.698   1137.797   268.000   2.085   10.720   10.720   0.000   0.000
0.03875   0.00625   326.507   1137.797   268.000   2.085   10.720   10.720   0.000   0.000
0.04125   0.00625   329.042   1137.797   268.000   2.085   10.720   10.720   0.000   0.000
0.04375   0.00625   331.331   1137.797   268.000   2.085   10.720   10.720   0.000   0.000
0.04625   0.00625   333.405   1137.797   268.000   2.085   10.720   10.720   0.000   0.000
0.04875   0.00625   335.314   1137.797   268.000   2.085   10.720   0.000   0.000   16.174
0.00125   0.00575   295.556   686.719   2.085   1.046   0.000   0.042   0.000   0.000
0.00375   0.00575   295.716   686.719   2.085   1.046   0.042   0.042   0.000   0.000
0.00625   0.00575   296.040   686.719   2.085   1.046   0.042   0.042   0.000   0.000
0.00875   0.00575   296.540   686.719   2.085   1.046   0.042   0.042   0.000   0.000
0.01125   0.00575   297.229   686.719   2.085   1.046   0.042   0.042   0.000   0.000
0.01375   0.00575   298.129   686.719   2.085   1.046   0.042   0.042   0.000   0.000
0.01625   0.00575   299.263   686.719   2.085   1.046   0.042   0.042   0.000   0.000
0.01875   0.00575   300.662   686.719   2.085   1.046   0.042   0.042   0.000   0.000
0.02125   0.00575   302.356   686.719   2.085   1.046   0.042   0.042   0.000   0.000
0.02375   0.00575   304.383   686.719   2.085   1.046   0.042   0.042   0.000   0.000
0.02625   0.00575   306.775   686.719   2.085   1.046   0.042   0.042   0.000   0.000
0.02875   0.00575   309.540   686.719   2.085   1.046   0.042   0.042   0.000   0.000
0.03125   0.00575   312.573   686.719   2.085   1.046   0.042   0.042   0.000   0.000
0.03375   0.00575   315.475   686.719   2.085   1.046   0.042   0.042   0.000   0.000
0.03625   0.00575   318.141   686.719   2.085   1.046   0.042   0.042   0.000   0.000
0.03875   0.00575   320.575   686.719   2.085   1.046   0.042   0.042   0.000   0.000
0.04125   0.00575   322.806   686.719   2.085   1.046   0.042   0.042   0.000   0.000
0.04375   0.00575   324.877   686.719   2.085   1.046   0.042   0.042   0.000   0.000
0.04625   0.00575   327.055   686.719   2.085   1.046   0.042   0.042   0.000   0.000
0.04875   0.00575   334.019   686.719   2.085   1.046   0.042   0.000   0.000   6.067
0.00125   0.00525   294.385   686.719   1.046   1.046   0.000   0.042   0.000   0.000
0.00375   0.00525   294.486   686.719   1.046   1.046   0.042   0.042   0.000   0.000
0.00625   0.00525   294.690   686.719   1.046   1.046   0.042   0.042   0.000   0.000
0.00875   0.00525   295.006   686.719   1.046   1.046   0.042   0.042   0.000   0.000
0.01125   0.00525   295.447   686.719   1.046   1.046   0.042   0.042   0.000   0.000
0.01375   0.00525   296.029   686.719   1.046   1.046   0.042   0.042   0.000   0.000
0.01625   0.00525   296.771   686.719   1.046   1.046   0.042   0.042   0.000   0.000
0.01875   0.00525   297.698   686.719   1.046   1.046   0.042   0.042   0.000   0.000
0.02125   0.00525   298.837   686.719   1.046   1.046   0.042   0.042   0.000   0.000
0.02375   0.00525   300.218   686.719   1.046   1.046   0.042   0.042   0.000   0.000
0.02625   0.00525   301.868   686.719   1.046   1.046   0.042   0.042   0.000   0.000
0.02875   0.00525   303.799   686.719   1.046   1.046   0.042   0.042   0.000   0.000
0.03125   0.00525   305.939   686.719   1.046   1.046   0.042   0.042   0.000   0.000
0.03375   0.00525   308.025   686.719   1.046   1.046   0.042   0.042   0.000   0.000
0.03625   0.00525   309.987   686.719   1.046   1.046   0.042   0.042   0.000   0.000
0.03875   0.00525   311.834   686.719   1.046   1.046   0.042   0.042   0.000   0.000
0.04125   0.00525   313.595   686.719   1.046   1.046   0.042   0.042   0.000   0.000
0.04375   0.00525   315.329   686.719   1.046   1.046   0.042   0.042   0.000   0.000
0.04625   0.00525   317.608   686.719   1.046   1.046   0.042   0.042   0.000   0.000
0.04875   0.00525   329.372   686.719   1.046   1.046   0.042   0.000   0.000   6.073
0.00125   0.00475   293.767   686.719   1.046   1.046   0.000   0.042   0.000   0.000
0.00375   0.00475   293.829   686.719   1.046   1.046   0.042   0.042   0.000   0.000
0.00625   0.00475   293.956   686.719   1.046   1.046   0.042   0.042   0.000   0.000
0.00875   0.00475   294.154   686.719   1.046   1.046   0.042   0.042   0.000   0.000
0.01125   0.00475   294.431   686.719   1.046   1.046   0.042   0.042   0.000   0.000
0.01375   0.00475   294.800   686.719   1.046   1.046   0.042   0.042   0.000   0.000
0.01625   0.00475   295.275   686.719   1.046   1.046   0.042   0.042   0.000   0.000
0.01875   0.00475   295.873   686.719   1.046   1.046   0.042   0.042   0.000   0.000
0.02125   0.00475   296.615   686.719   1.046   1.046   0.042   0.042   0.000   0.000
0.02375   0.00475   297.522   686.719   1.046   1.046   0.042   0.042   0.000   0.000
0.02625   0.00475   298.616   686.719   1.046   1.046   0.042   0.042   0.000   0.000
0.02875   0.00475   299.907   686.719   1.046   1.046   0.042   0.042   0.000   0.000
0.03125   0.00475   301.356   686.719   1.046   1.046   0.042   0.042   0.000   0.000
0.03375   0.00475   302.818   686.719   1.046   1.046   0.042   0.042   0.000   0.000
0.03625   0.00475   304.253   686.719   1.046   1.046   0.042   0.042   0.000   0.000
0.03875   0.00475   305.674   686.719   1.046   1.046   0.042   0.042   0.000   0.000
0.04125   0.00475   307.102   686.719   1.046   1.046   0.042   0.042   0.000   0.000
0.04375   0.00475   308.592   686.719   1.046   1.046   0.042   0.042   0.000   0.000
0.04625   0.00475   310.713   686.719   1.046   1.046   0.042   0.042   0.000   0.000
0.04875   0.00475   322.403   686.719   1.046   1.046   0.042   0.000   0.000   6.081
0.00125   0.00425   293.499   686.719   1.046   2.085   0.000   0.042   0.000   0.000
0.00375   0.00425   293.539   686.719   1.046   2.085   0.042   0.042   0.000   0.000
0.00625   0.00425   293.621   686.719   1.046   2.085   0.042   0.042   0.000   0.000
0.00875   0.00425   293.749   686.719   1.046   2.085   0.042   0.042   0.000   0.000
0.01125   0.00425   293.928   686.719   1.046   2.085   0.042   0.042   0.000   0.000
0.01375   0.00425   294.165   686.719   1.046   2.085   0.042   0.042   0.000   0.000
0.01625   0.00425   294.469   686.719   1.046   2.085   0.042   0.042   0.000   0.000
0.01875   0.00425   294.850   686.719   1.046   2.085   0.042   0.042   0.000   0.000
0.02125   0.00425   295.320   686.719   1.046   2.085   0.042   0.042   0.000   0.000
0.02375   0.00425   295.891   686.719   1.046   2.085   0.042   0.042   0.000   0.000
0.02625   0.00425   296.577   686.719   1.046   2.085   0.042   0.042   0.000   0.000
0.02875   0.00425   297.385   686.719   1.046   2.085   0.042   0.042   0.000   0.000
0.03125   0.00425   298.307   686.719   1.046   2.085   0.042   0.042   0.000   0.000
0.03375   0.00425   299.300   686.719   1.046   2.085   0.042   0.042   0.000   0.000
0.03625   0.00425   300.356   686.719   1.046   2.085   0.042   0.042   0.000   0.000
0.03875   0.00425   301.484   686.719   1.046   2.085   0.042   0.042   0.000   0.000
0.04125   0.00425   302.696   686.719   1.046   2.085   0.042   0.042   0.000   0.000
0.04375   0.00425   304.019   686.719   1.046   2.085   0.042   0.042   0.000   0.000
0.04625   0.00425   305.707   686.719   1.046   2.085   0.042   0.042   0.000   0.000
0.04875   0.00425   312.442   686.719   1.046   2.085   0.042   0.000   0.000   6.092
0.00125   0.00375   293.484   1137.797   2.085   268.000   0.000   10.720   0.000   0.000
0.00375   0.00375   293.519   1137.797   2.085   268.000   10.720   10.720   0.000   0.000
0.00625   0.00375   293.589   1137.797   2.085   268.000   10.720   10.720   0.000   0.000
0.00875   0.00375   293.699   1137.797   2.085   268.000   10.720   10.720   0.000   0.000
0.01125   0.00375   293.850   1137.797   2.085   268.000   10.720   10.720   0.000   0.000
0.01375   0.00375   294.048   1137.797   2.085   268.000   10.720   10.720   0.000   0.000
0.01625   0.00375   294.299   1137.797   2.085   268.000   10.720   10.720   0.000   0.000
0.01875   0.00375   294.608   1137.797   2.085   268.000   10.720   10.720   0.000   0.000
0.02125   0.00375   294.983   1137.797   2.085   268.000   10.720   10.720   0.000   0.000
0.02375   0.00375   295.431   1137.797   2.085   268.000   10.720   10.720   0.000   0.000
0.02625   0.00375   295.960   1137.797   2.085   268.000   10.720   10.720   0.000   0.000
0.02875   0.00375   296.577   1137.797   2.085   268.000   10.720   10.720   0.000   0.000
0.03125   0.00375   297.286   1137.797   2.085   268.000   10.720   10.720   0.000   0.000
0.03375   0.00375   298.095   1137.797   2.085   268.000   10.720   10.720   0.000   0.000
0.03625   0.00375   299.007   1137.797   2.085   268.000   10.720   10.720   0.000   0.000
0.03875   0.00375   300.031   1137.797   2.085   268.000   10.720   10.720   0.000   0.000
0.04125   0.00375   301.171   1137.797   2.085   268.000   10.720   10.720   0.000   0.000
0.04375   0.00375   302.436   1137.797   2.085   268.000   10.720   10.720   0.000   0.000
0.04625   0.00375   303.839   1137.797   2.085   268.000   10.720   10.720   0.000   0.000
0.04875   0.00375   305.420   1137.797   2.085   268.000   10.720   0.000   0.000   16.263
0.00125   0.00325   293.484   1137.797   268.000   268.000   0.000   10.720   0.000   0.000
0.00375   0.00325   293.518   1137.797   268.000   268.000   10.720   10.720   0.000   0.000
0.00625   0.00325   293.589   1137.797   268.000   268.000   10.720   10.720   0.000   0.000
0.00875   0.00325   293.698   1137.797   268.000   268.000   10.720   10.720   0.000   0.000
0.01125   0.00325   293.849   1137.797   268.000   268.000   10.720   10.720   0.000   0.000
0.01375   0.00325   294.047   1137.797   268.000   268.000   10.720   10.720   0.000   0.000
0.01625   0.00325   294.297   1137.797   268.000   268.000   10.720   10.720   0.000   0.000
0.01875   0.00325   294.606   1137.797   268.000   268.000   10.720   10.720   0.000   0.000
0.02125   0.00325   294.981   1137.797   268.000   268.000   10.720   10.720   0.000   0.000
0.02375   0.00325   295.428   1137.797   268.000   268.000   10.720   10.720   0.000   0.000
0.02625   0.00325   295.956   1137.797   268.000   268.000   10.720   10.720   0.000   0.000
0.02875   0.00325   296.571   1137.797   268.000   268.000   10.720   10.720   0.000   0.000
0.03125   0.00325   297.279   1137.797   268.000   268.000   10.720   10.720   0.000   0.000
0.03375   0.00325   298.087   1137.797   268.000   268.000   10.720   10.720   0.000   0.000
0.03625   0.00325   298.998   1137.797   268.000   268.000   10.720   10.720   0.000   0.000
0.03875   0.00325   300.021   1137.797   268.000   268.000   10.720   10.720   0.000   0.000
0.04125   0.00325   301.161   1137.797   268.000   268.000   10.720   10.720   0.000   0.000
0.04375   0.00325   302.425   1137.797   268.000   268.000   10.720   10.720   0.000   0.000
0.04625   0.00325   303.824   1137.797   268.000   268.000   10.720   10.720   0.000   0.000
0.04875   0.00325   305.375   1137.797   268.000   268.000   10.720   0.000   0.000   16.264
0.00125   0.00275   293.484   1137.797   268.000   268.000   0.000   10.720   0.000   0.000
0.00375   0.00275   293.518   1137.797   268.000   268.000   10.720   10.720   0.000   0.000
0.00625   0.00275   293.589   1137.797   268.000   268.000   10.720   10.720   0.000   0.000
0.00875   0.00275   293.698   1137.797   268.000   268.000   10.720   10.720   0.000   0.000
0.01125   0.00275   293.849   1137.797   268.000   268.000   10.720   10.720   0.000   0.000
0.01375   0.00275   294.047   1137.797   268.000   268.000   10.720   10.720   0.000   0.000
0.01625   0.00275   294.296   1137.797   268.000   268.000   10.720   10.720   0.000   0.000
0.01875   0.00275   294.605   1137.797   268.000   268.000   10.720   10.720   0.000   0.000
0.02125   0.00275   294.979   1137.797   268.000   268.000   10.720   10.720   0.000   0.000
0.02375   0.00275   295.426   1137.797   268.000   268.000   10.720   10.720   0.000   0.000
0.02625   0.00275   295.952   1137.797   268.000   268.000   10.720   10.720   0.000   0.000
0.02875   0.00275   296.566   1137.797   268.000   268.000   10.720   10.720   0.000   0.000
0.03125   0.00275   297.274   1137.797   268.000   268.000   10.720   10.720   0.000   0.000
0.03375   0.00275   298.080   1137.797   268.000   268.000   10.720   10.720   0.000   0.000
0.03625   0.00275   298.990   1137.797   268.000   268.000   10.720   10.720   0.000   0.000
0.03875   0.00275   300.012   1137.797   268.000   268.000   10.720   10.720   0.000   0.000
0.04125   0.00275   301.152   1137.797   268.000   268.000   10.720   10.720   0.000   0.000
0.04375   0.00275   302.415   1137.797   268.000   268.000   10.720   10.720   0.000   0.000
0.04625   0.00275   303.810   1137.797   268.000   268.000   10.720   10.720   0.000   0.000
0.04875   0.00275   305.338   1137.797   268.000   268.000   10.720   0.000   0.000   16.264
0.00125   0.00225   293.483   1137.797   268.000   268.000   0.000   10.720   0.000   0.000
0.00375   0.00225   293.518   1137.797   268.000   268.000   10.720   10.720   0.000   0.000
0.00625   0.00225   293.589   1137.797   268.000   268.000   10.720   10.720   0.000   0.000
0.00875   0.00225   293.698   1137.797   268.000   268.000   10.720   10.720   0.000   0.000
0.01125   0.00225   293.849   1137.797   268.000   268.000   10.720   10.720   0.000   0.000
0.01375   0.00225   294.046   1137.797   268.000   268.000   10.720   10.720   0.000   0.000
0.01625   0.00225   294.296   1137.797   268.000   268.000   10.720   10.720   0.000   0.000
0.01875   0.00225   294.604   1137.797   268.000   268.000   10.720   10.720   0.000   0.000
0.02125   0.00225   294.977   1137.797   268.000   268.000   10.720   10.720   0.000   0.000
0.02375   0.00225   295.423   1137.797   268.000   268.000   10.720   10.720   0.000   0.000
0.02625   0.00225   295.949   1137.797   268.000   268.000   10.720   10.720   0.000   0.000
0.02875   0.00225   296.562   1137.797   268.000   268.000   10.720   10.720   0.000   0.000
0.03125   0.00225   297.269   1137.797   268.000   268.000   10.720   10.720   0.000   0.000
0.03375   0.00225   298.074   1137.797   268.000   268.000   10.720   10.720   0.000   0.000
0.03625   0.00225   298.984   1137.797   268.000   268.000   10.720   10.720   0.000   0.000
0.03875   0.00225   300.005   1137.797   268.000   268.000   10.720   10.720   0.000   0.000
0.04125   0.00225   301.144   1137.797   268.000   268.000   10.720   10.720   0.000   0.000
0.04375   0.00225   302.407   1137.797   268.000   268.000   10.720   10.720   0.000   0.000
0.04625   0.00225   303.798   1137.797   268.000   268.000   10.720   10.720   0.000   0.000
0.04875   0.00225   305.308   1137.797   268.000   268.000   10.720   0.000   0.000   16.264
0.00125   0.00175   293.483   1137.797   268.000   268.000   0.000   10.720   0.000   0.000
0.00375   0.00175   293.518   1137.797   268.000   268.000   10.720   10.720   0.000   0.000
0.00625   0.00175   293.589   1137.797   268.000   268.000   10.720   10.720   0.000   0.000
0.00875   0.00175   293.698   1137.797   268.000   268.000   10.720   10.720   0.000   0.000
0.01125   0.00175   293.848   1137.797   268.000   268.000   10.720   10.720   0.000   0.000
0.01375   0.00175   294.046   1137.797   268.000   268.000   10.720   10.720   0.000   0.000
0.01625   0.00175   294.295   1137.797   268.000   268.000   10.720   10.720   0.000   0.000
0.01875   0.00175   294.603   1137.797   268.000   268.000   10.720   10.720   0.000   0.000
0.02125   0.00175   294.976   1137.797   268.000   268.000   10.720   10.720   0.000   0.000