VARIABLES = X, Y, T, ap,an,as,aw,ae,sp,su
ZONE I=20,J=20, F=POINT,t="25.568"
0.00125   0.00975   298.900   1137.797   0.000   268.000   0.000   10.720   0.000   -0.004
0.00375   0.00975   299.150   1137.797   0.000   268.000   10.720   10.720   0.000   -0.005
0.00625   0.00975   299.655   1137.797   0.000   268.000   10.720   10.720   0.000   -0.005
0.00875   0.00975   300.423   1137.797   0.000   268.000   10.720   10.720   0.000   -0.006
0.01125   0.00975   301.468   1137.797   0.000   268.000   10.720   10.720   0.000   -0.006
0.01375   0.00975   302.808   1137.797   0.000   268.000   10.720   10.720   0.000   -0.007
0.01625   0.00975   304.464   1137.797   0.000   268.000   10.720   10.720   0.000   -0.009
0.01875   0.00975   306.462   1137.797   0.000   268.000   10.720   10.720   0.000   -0.010
0.02125   0.00975   308.829   1137.797   0.000   268.000   10.720   10.720   0.000   -0.012
0.02375   0.00975   311.599   1137.797   0.000   268.000   10.720   10.720   0.000   -0.014
0.02625   0.00975   314.812   1137.797   0.000   268.000   10.720   10.720   0.000   -0.016
0.02875   0.00975   318.549   1137.797   0.000   268.000   10.720   10.720   0.000   -0.019
0.03125   0.00975   323.225   1137.797   0.000   268.000   10.720   10.720   0.000   81.043
0.03375   0.00975   327.060   1137.797   0.000   268.000   10.720   10.720   0.000   80.981
0.03625   0.00975   330.467   1137.797   0.000   268.000   10.720   10.720   0.000   80.923
0.03875   0.00975   333.523   1137.797   0.000   268.000   10.720   10.720   0.000   80.870
0.04125   0.00975   336.262   1137.797   0.000   268.000   10.720   10.720   0.000   80.822
0.04375   0.00975   338.707   1137.797   0.000   268.000   10.720   10.720   0.000   80.777
0.04625   0.00975   340.867   1137.797   0.000   268.000   10.720   10.720   0.000   80.737
0.04875   0.00975   342.731   1137.797   0.000   268.000   10.720   0.000   0.000   96.850
0.00125   0.00925   298.899   1137.797   268.000   268.000   0.000   10.720   0.000   0.000
0.00375   0.00925   299.149   1137.797   268.000   268.000   10.720   10.720   0.000   0.000
0.00625   0.00925   299.653   1137.797   268.000   268.000   10.720   10.720   0.000   0.000
0.00875   0.00925   300.421   1137.797   268.000   268.000   10.720   10.720   0.000   0.000
0.01125   0.00925   301.466   1137.797   268.000   268.000   10.720   10.720   0.000   0.000
0.01375   0.00925   302.806   1137.797   268.000   268.000   10.720   10.720   0.000   0.000
0.01625   0.00925   304.462   1137.797   268.000   268.000   10.720   10.720   0.000   0.000
0.01875   0.00925   306.459   1137.797   268.000   268.000   10.720   10.720   0.000   0.000
0.02125   0.00925   308.826   1137.797   268.000   268.000   10.720   10.720   0.000   0.000
0.02375   0.00925   311.595   1137.797   268.000   268.000   10.720   10.720   0.000   0.000
0.02625   0.00925   314.806   1137.797   268.000   268.000   10.720   10.720   0.000   0.000
0.02875   0.00925   318.527   1137.797   268.000   268.000   10.720   10.720   0.000   0.000
0.03125   0.00925   322.973   1137.797   268.000   268.000   10.720   10.720   0.000   0.000
0.03375   0.00925   326.793   1137.797   268.000   268.000   10.720   10.720   0.000   0.000
0.03625   0.00925   330.197   1137.797   268.000   268.000   10.720   10.720   0.000   0.000
0.03875   0.00925   333.253   1137.797   268.000   268.000   10.720   10.720   0.000   0.000
0.04125   0.00925   335.992   1137.797   268.000   268.000   10.720   10.720   0.000   0.000
0.04375   0.00925   338.437   1137.797   268.000   268.000   10.720   10.720   0.000   0.000
0.04625   0.00925   340.598   1137.797   268.000   268.000   10.720   10.720   0.000   0.000
0.04875   0.00925   342.464   1137.797   268.000   268.000   10.720   0.000   0.000   16.149
0.00125   0.00875   298.896   1137.797   268.000   268.000   0.000   10.720   0.000   0.000
0.00375   0.00875   299.146   1137.797   268.000   268.000   10.720   10.720   0.000   0.000
0.00625   0.00875   299.650   1137.797   268.000   268.000   10.720   10.720   0.000   0.000
0.00875   0.00875   300.418   1137.797   268.000   268.000   10.720   10.720   0.000   0.000
0.01125   0.00875   301.462   1137.797   268.000   268.000   10.720   10.720   0.000   0.000
0.01375   0.00875   302.802   1137.797   268.000   268.000   10.720   10.720   0.000   0.000
0.01625   0.00875   304.457   1137.797   268.000   268.000   10.720   10.720   0.000   0.000
0.01875   0.00875   306.454   1137.797   268.000   268.000   10.720   10.720   0.000   0.000
0.02125   0.00875   308.820   1137.797   268.000   268.000   10.720   10.720   0.000   0.000
0.02375   0.00875   311.588   1137.797   268.000   268.000   10.720   10.720   0.000   0.000
0.02625   0.00875   314.794   1137.797   268.000   268.000   10.720   10.720   0.000   0.000
0.02875   0.00875   318.493   1137.797   268.000   268.000   10.720   10.720   0.000   0.000
0.03125   0.00875   322.763   1137.797   268.000   268.000   10.720   10.720   0.000   0.000
0.03375   0.00875   326.559   1137.797   268.000   268.000   10.720   10.720   0.000   0.000
0.03625   0.00875   329.960   1137.797   268.000   268.000   10.720   10.720   0.000   0.000
0.03875   0.00875   333.015   1137.797   268.000   268.000   10.720   10.720   0.000   0.000
0.04125   0.00875   335.754   1137.797   268.000   268.000   10.720   10.720   0.000   0.000
0.04375   0.00875   338.198   1137.797   268.000   268.000   10.720   10.720   0.000   0.000
0.04625   0.00875   340.361   1137.797   268.000   268.000   10.720   10.720   0.000   0.000
0.04875   0.00875   342.233   1137.797   268.000   268.000   10.720   0.000   0.000   16.150
0.00125   0.00825   298.892   1137.797   268.000   268.000   0.000   10.720   0.000   0.000
0.00375   0.00825   299.142   1137.797   268.000   268.000   10.720   10.720   0.000   0.000
0.00625   0.00825   299.646   1137.797   268.000   268.000   10.720   10.720   0.000   0.000
0.00875   0.00825   300.413   1137.797   268.000   268.000   10.720   10.720   0.000   0.000
0.01125   0.00825   301.457   1137.797   268.000   268.000   10.720   10.720   0.000   0.000
0.01375   0.00825   302.795   1137.797   268.000   268.000   10.720   10.720   0.000   0.000
0.01625   0.00825   304.450   1137.797   268.000   268.000   10.720   10.720   0.000   0.000
0.01875   0.00825   306.446   1137.797   268.000   268.000   10.720   10.720   0.000   0.000
0.02125   0.00825   308.811   1137.797   268.000   268.000   10.720   10.720   0.000   0.000
0.02375   0.00825   311.577   1137.797   268.000   268.000   10.720   10.720   0.000   0.000
0.02625   0.00825   314.778   1137.797   268.000   268.000   10.720   10.720   0.000   0.000
0.02875   0.00825   318.451   1137.797   268.000   268.000   10.720   10.720   0.000   0.000
0.03125   0.00825   322.588   1137.797   268.000   268.000   10.720   10.720   0.000   0.000
0.03375   0.00825   326.360   1137.797   268.000   268.000   10.720   10.720   0.000   0.000
0.03625   0.00825   329.755   1137.797   268.000   268.000   10.720   10.720   0.000   0.000
0.03875   0.00825   332.808   1137.797   268.000   268.000   10.720   10.720   0.000   0.000
0.04125   0.00825   335.546   1137.797   268.000   268.000   10.720   10.720   0.000   0.000
0.04375   0.00825   337.991   1137.797   268.000   268.000   10.720   10.720   0.000   0.000
0.04625   0.00825   340.157   1137.797   268.000   268.000   10.720   10.720   0.000   0.000
0.04875   0.00825   342.037   1137.797   268.000   268.000   10.720   0.000   0.000   16.150
0.00125   0.00775   298.886   1137.797   268.000   268.000   0.000   10.720   0.000   0.000
0.00375   0.00775   299.136   1137.797   268.000   268.000   10.720   10.720   0.000   0.000
0.00625   0.00775   299.639   1137.797   268.000   268.000   10.720   10.720   0.000   0.000
0.00875   0.00775   300.406   1137.797   268.000   268.000   10.720   10.720   0.000   0.000
0.01125   0.00775   301.449   1137.797   268.000   268.000   10.720   10.720   0.000   0.000
0.01375   0.00775   302.787   1137.797   268.000   268.000   10.720   10.720   0.000   0.000
0.01625   0.00775   304.441   1137.797   268.000   268.000   10.720   10.720   0.000   0.000
0.01875   0.00775   306.435   1137.797   268.000   268.000   10.720   10.720   0.000   0.000
0.02125   0.00775   308.799   1137.797   268.000   268.000   10.720   10.720   0.000   0.000
0.02375   0.00775   311.563   1137.797   268.000   268.000   10.720   10.720   0.000   0.000
0.02625   0.00775   314.758   1137.797   268.000   268.000   10.720   10.720   0.000   0.000
0.02875   0.00775   318.407   1137.797   268.000   268.000   10.720   10.720   0.000   0.000
0.03125   0.00775   322.445   1137.797   268.000   268.000   10.720   10.720   0.000   0.000
0.03375   0.00775   326.192   1137.797   268.000   268.000   10.720   10.720   0.000   0.000
0.03625   0.00775   329.583   1137.797   268.000   268.000   10.720   10.720   0.000   0.000
0.03875   0.00775   332.634   1137.797   268.000   268.000   10.720   10.720   0.000   0.000
0.04125   0.00775   335.371   1137.797   268.000   268.000   10.720   10.720   0.000   0.000
0.04375   0.00775   337.815   1137.797   268.000   268.000   10.720   10.720   0.000   0.000
0.04625   0.00775   339.984   1137.797   268.000   268.000   10.720   10.720   0.000   0.000
0.04875   0.00775   341.876   1137.797   268.000   268.000   10.720   0.000   0.000   16.151
0.00125   0.00725   298.879   1137.797   268.000   268.000   0.000   10.720   0.000   0.000
0.00375   0.00725   299.129   1137.797   268.000   268.000   10.720   10.720   0.000   0.000
0.00625   0.00725   299.632   1137.797   268.000   268.000   10.720   10.720   0.000   0.000
0.00875   0.00725   300.398   1137.797   268.000   268.000   10.720   10.720   0.000   0.000
0.01125   0.00725   301.440   1137.797   268.000   268.000   10.720   10.720   0.000   0.000
0.01375   0.00725   302.777   1137.797   268.000   268.000   10.720   10.720   0.000   0.000
0.01625   0.00725   304.429   1137.797   268.000   268.000   10.720   10.720   0.000   0.000
0.01875   0.00725   306.422   1137.797   268.000   268.000   10.720   10.720   0.000   0.000
0.02125   0.00725   308.784   1137.797   268.000   268.000   10.720   10.720   0.000   0.000
0.02375   0.00725   311.545   1137.797   268.000   268.000   10.720   10.720   0.000   0.000
0.02625   0.00725   314.734   1137.797   268.000   268.000   10.720   10.720   0.000   0.000
0.02875   0.00725   318.362   1137.797   268.000   268.000   10.720   10.720   0.000   0.000
0.03125   0.00725   322.330   1137.797   268.000   268.000   10.720   10.720   0.000   0.000
0.03375   0.00725   326.057   1137.797   268.000   268.000   10.720   10.720   0.000   0.000
0.03625   0.00725   329.442   1137.797   268.000   268.000   10.720   10.720   0.000   0.000
0.03875   0.00725   332.491   1137.797   268.000   268.000   10.720   10.720   0.000   0.000
0.04125   0.00725   335.226   1137.797   268.000   268.000   10.720   10.720   0.000   0.000
0.04375   0.00725   337.671   1137.797   268.000   268.000   10.720   10.720   0.000   0.000
0.04625   0.00725   339.843   1137.797   268.000   268.000   10.720   10.720   0.000   0.000
0.04875   0.00725   341.752   1137.797   268.000   268.000   10.720   0.000   0.000   16.151
0.00125   0.00675   298.871   1137.797   268.000   268.000   0.000   10.720   0.000   0.000
0.00375   0.00675   299.120   1137.797   268.000   268.000   10.720   10.720   0.000   0.000
0.00625   0.00675   299.622   1137.797   268.000   268.000   10.720   10.720   0.000   0.000
0.00875   0.00675   300.388   1137.797   268.000   268.000   10.720   10.720   0.000   0.000
0.01125   0.00675   301.429   1137.797   268.000   268.000   10.720   10.720   0.000   0.000
0.01375   0.00675   302.765   1137.797   268.000   268.000   10.720   10.720   0.000   0.000
0.01625   0.00675   304.415   1137.797   268.000   268.000   10.720   10.720   0.000   0.000
0.01875   0.00675   306.406   1137.797   268.000   268.000   10.720   10.720   0.000   0.000
0.02125   0.00675   308.766   1137.797   268.000   268.000   10.720   10.720   0.000   0.000
0.02375   0.00675   311.524   1137.797   268.000   268.000   10.720   10.720   0.000   0.000
0.02625   0.00675   314.708   1137.797   268.000   268.000   10.720   10.720   0.000   0.000
0.02875   0.00675   318.320   1137.797   268.000   268.000   10.720   10.720   0.000   0.000
0.03125   0.00675   322.242   1137.797   268.000   268.000   10.720   10.720   0.000   0.000
0.03375   0.00675   325.953   1137.797   268.000   268.000   10.720   10.720   0.000   0.000
0.03625   0.00675   329.333   1137.797   268.000   268.000   10.720   10.720   0.000   0.000
0.03875   0.00675   332.379   1137.797   268.000   268.000   10.720   10.720   0.000   0.000
0.04125   0.00675   335.113   1137.797   268.000   268.000   10.720   10.720   0.000   0.000
0.04375   0.00675   337.557   1137.797   268.000   268.000   10.720   10.720   0.000   0.000
0.04625   0.00675   339.732   1137.797   268.000   268.000   10.720   10.720   0.000   0.000
0.04875   0.00675   341.664   1137.797   268.000   268.000   10.720   0.000   0.000   16.152
0.00125   0.00625   298.861   1137.797   268.000   2.085   0.000   10.720   0.000   0.000
0.00375   0.00625   299.110   1137.797   268.000   2.085   10.720   10.720   0.000   0.000
0.00625   0.00625   299.612   1137.797   268.000   2.085   10.720   10.720   0.000   0.000
0.00875   0.00625   300.376   1137.797   268.000   2.085   10.720   10.720   0.000   0.000
0.01125   0.00625   301.416   1137.797   268.000   2.085   10.720   10.720   0.000   0.000
0.01375   0.00625   302.750   1137.797   268.000   2.085   10.720   10.720   0.000   0.000
0.01625   0.00625   304.399   1137.797   268.000   2.085   10.720   10.720   0.000   0.000
0.01875   0.00625   306.388   1137.797   268.000   2.085   10.720   10.720   0.000   0.000
0.02125   0.00625   308.745   1137.797   268.000   2.085   10.720   10.720   0.000   0.000
0.02375   0.00625   311.500   1137.797   268.000   2.085   10.720   10.720   0.000   0.000
0.02625   0.00625   314.679   1137.797   268.000   2.085   10.720   10.720   0.000   0.000
0.02875   0.00625   318.282   1137.797   268.000   2.085   10.720   10.720   0.000   0.000
0.03125   0.00625   322.179   1137.797   268.000   2.085   10.720   10.720   0.000   0.000
0.03375   0.00625   325.880   1137.797   268.000   2.085   10.720   10.720   0.000   0.000
0.03625   0.00625   329.255   1137.797   268.000   2.085   10.720   10.720   0.000   0.000
0.03875   0.00625   332.299   1137.797   268.000   2.085   10.720   10.720   0.000   0.000
0.04125   0.00625   335.031   1137.797   268.000   2.085   10.720   10.720   0.000   0.000
0.04375   0.00625   337.474   1137.797   268.000   2.085   10.720   10.720   0.000   0.000
0.04625   0.00625   339.652   1137.797   268.000   2.085   10.720   10.720   0.000   0.000
0.04875   0.00625   341.613   1137.797   268.000   2.085   10.720   0.000   0.000   16.152
0.00125   0.00575   297.415   686.719   2.085   1.046   0.000   0.042   0.000   0.000
0.00375   0.00575   297.620   686.719   2.085   1.046   0.042   0.042   0.000   0.000
0.00625   0.00575   298.034   686.719   2.085   1.046   0.042   0.042   0.000   0.000
0.00875   0.00575   298.666   686.719   2.085   1.046   0.042   0.042   0.000   0.000
0.01125   0.00575   299.529   686.719   2.085   1.046   0.042   0.042   0.000   0.000
0.01375   0.00575   300.640   686.719   2.085   1.046   0.042   0.042   0.000   0.000
0.01625   0.00575   302.020   686.719   2.085   1.046   0.042   0.042   0.000   0.000
0.01875   0.00575   303.694   686.719   2.085   1.046   0.042   0.042   0.000   0.000
0.02125   0.00575   305.689   686.719   2.085   1.046   0.042   0.042   0.000   0.000
0.02375   0.00575   308.034   686.719   2.085   1.046   0.042   0.042   0.000   0.000
0.02625   0.00575   310.754   686.719   2.085   1.046   0.042   0.042   0.000   0.000
0.02875   0.00575   313.851   686.719   2.085   1.046   0.042   0.042   0.000   0.000
0.03125   0.00575   317.211   686.719   2.085   1.046   0.042   0.042   0.000   0.000
0.03375   0.00575   320.426   686.719   2.085   1.046   0.042   0.042   0.000   0.000
0.03625   0.00575   323.381   686.719   2.085   1.046   0.042   0.042   0.000   0.000
0.03875   0.00575   326.073   686.719   2.085   1.046   0.042   0.042   0.000   0.000
0.04125   0.00575   328.522   686.719   2.085   1.046   0.042   0.042   0.000   0.000
0.04375   0.00575   330.767   686.719   2.085   1.046   0.042   0.042   0.000   0.000
0.04625   0.00575   333.071   686.719   2.085   1.046   0.042   0.042   0.000   0.000
0.04875   0.00575   340.110   686.719   2.085   1.046   0.042   0.000   0.000   6.059
0.00125   0.00525   295.625   686.719   1.046   1.046   0.000   0.042   0.000   0.000
0.00375   0.00525   295.763   686.719   1.046   1.046   0.042   0.042   0.000   0.000
0.00625   0.00525   296.045   686.719   1.046   1.046   0.042   0.042   0.000   0.000
0.00875   0.00525   296.476   686.719   1.046   1.046   0.042   0.042   0.000   0.000
0.01125   0.00525   297.069   686.719   1.046   1.046   0.042   0.042   0.000   0.000
0.01375   0.00525   297.837   686.719   1.046   1.046   0.042   0.042   0.000   0.000
0.01625   0.00525   298.798   686.719   1.046   1.046   0.042   0.042   0.000   0.000
0.01875   0.00525   299.973   686.719   1.046   1.046   0.042   0.042   0.000   0.000
0.02125   0.00525   301.386   686.719   1.046   1.046   0.042   0.042   0.000   0.000
0.02375   0.00525   303.061   686.719   1.046   1.046   0.042   0.042   0.000   0.000
0.02625   0.00525   305.021   686.719   1.046   1.046   0.042   0.042   0.000   0.000
0.02875   0.00525   307.270   686.719   1.046   1.046   0.042   0.042   0.000   0.000
0.03125   0.00525   309.726   686.719   1.046   1.046   0.042   0.042   0.000   0.000
0.03375   0.00525   312.120   686.719   1.046   1.046   0.042   0.042   0.000   0.000
0.03625   0.00525   314.369   686.719   1.046   1.046   0.042   0.042   0.000   0.000
0.03875   0.00525   316.476   686.719   1.046   1.046   0.042   0.042   0.000   0.000
0.04125   0.00525   318.460   686.719   1.046   1.046   0.042   0.042   0.000   0.000
0.04375   0.00525   320.376   686.719   1.046   1.046   0.042   0.042   0.000   0.000
0.04625   0.00525   322.800   686.719   1.046   1.046   0.042   0.042   0.000   0.000
0.04875   0.00525   334.667   686.719   1.046   1.046   0.042   0.000   0.000   6.066
0.00125   0.00475   294.588   686.719   1.046   1.046   0.000   0.042   0.000   0.000
0.00375   0.00475   294.680   686.719   1.046   1.046   0.042   0.042   0.000   0.000
0.00625   0.00475   294.867   686.719   1.046   1.046   0.042   0.042   0.000   0.000
0.00875   0.00475   295.155   686.719   1.046   1.046   0.042   0.042   0.000   0.000
0.01125   0.00475   295.551   686.719   1.046   1.046   0.042   0.042   0.000   0.000
0.01375   0.00475   296.066   686.719   1.046   1.046   0.042   0.042   0.000   0.000
0.01625   0.00475   296.715   686.719   1.046   1.046   0.042   0.042   0.000   0.000
0.01875   0.00475   297.511   686.719   1.046   1.046   0.042   0.042   0.000   0.000
0.02125   0.00475   298.472   686.719   1.046   1.046   0.042   0.042   0.000   0.000
0.02375   0.00475   299.618   686.719   1.046   1.046   0.042   0.042   0.000   0.000
0.02625   0.00475   300.964   686.719   1.046   1.046   0.042   0.042   0.000   0.000
0.02875   0.00475   302.515   686.719   1.046   1.046   0.042   0.042   0.000   0.000
0.03125   0.00475   304.226   686.719   1.046   1.046   0.042   0.042   0.000   0.000
0.03375   0.00475   305.943   686.719   1.046   1.046   0.042   0.042   0.000   0.000
0.03625   0.00475   307.618   686.719   1.046   1.046   0.042   0.042   0.000   0.000
0.03875   0.00475   309.256   686.719   1.046   1.046   0.042   0.042   0.000   0.000
0.04125   0.00475   310.874   686.719   1.046   1.046   0.042   0.042   0.000   0.000
0.04375   0.00475   312.520   686.719   1.046   1.046   0.042   0.042   0.000   0.000
0.04625   0.00475   314.766   686.719   1.046   1.046   0.042   0.042   0.000   0.000
0.04875   0.00475   326.553   686.719   1.046   1.046   0.042   0.000   0.000   6.076
0.00125   0.00425   294.068   686.719   1.046   2.085   0.000   0.042   0.000   0.000
0.00375   0.00425   294.129   686.719   1.046   2.085   0.042   0.042   0.000   0.000
0.00625   0.00425   294.252   686.719   1.046   2.085   0.042   0.042   0.000   0.000
0.00875   0.00425   294.441   686.719   1.046   2.085   0.042   0.042   0.000   0.000
0.01125   0.00425   294.700   686.719   1.046   2.085   0.042   0.042   0.000   0.000
0.01375   0.00425   295.037   686.719   1.046   2.085   0.042   0.042   0.000   0.000
0.01625   0.00425   295.458   686.719   1.046   2.085   0.042   0.042   0.000   0.000
0.01875   0.00425   295.972   686.719   1.046   2.085   0.042   0.042   0.000   0.000
0.02125   0.00425   296.589   686.719   1.046   2.085   0.042   0.042   0.000   0.000
0.02375   0.00425   297.319   686.719   1.046   2.085   0.042   0.042   0.000   0.000
0.02625   0.00425   298.171   686.719   1.046   2.085   0.042   0.042   0.000   0.000
0.02875   0.00425   299.151   686.719   1.046   2.085   0.042   0.042   0.000   0.000
0.03125   0.00425   300.245   686.719   1.046   2.085   0.042   0.042   0.000   0.000
0.03375   0.00425   301.404   686.719   1.046   2.085   0.042   0.042   0.000   0.000
0.03625   0.00425   302.617   686.719   1.046   2.085   0.042   0.042   0.000   0.000
0.03875   0.00425   303.885   686.719   1.046   2.085   0.042   0.042   0.000   0.000
0.04125   0.00425   305.219   686.719   1.046   2.085   0.042   0.042   0.000   0.000
0.04375   0.00425   306.641   686.719   1.046   2.085   0.042   0.042   0.000   0.000
0.04625   0.00425   308.405   686.719   1.046   2.085   0.042   0.042   0.000   0.000
0.04875   0.00425   315.191   686.719   1.046   2.085   0.042   0.000   0.000   6.089
0.00125   0.00375   293.990   1137.797   2.085   268.000   0.000   10.720   0.000   0.000
0.00375   0.00375   294.040   1137.797   2.085   268.000   10.720   10.720   0.000   0.000
0.00625   0.00375   294.142   1137.797   2.085   268.000   10.720   10.720   0.000   0.000
0.00875   0.00375   294.297   1137.797   2.085   268.000   10.720   10.720   0.000   0.000
0.01125   0.00375   294.508   1137.797   2.085   268.000   10.720   10.720   0.000   0.000
0.01375   0.00375   294.780   1137.797   2.085   268.000   10.720   10.720   0.000   0.000
0.01625   0.00375   295.116   1137.797   2.085   268.000   10.720   10.720   0.000   0.000
0.01875   0.00375   295.522   1137.797   2.085   268.000   10.720   10.720   0.000   0.000
0.02125   0.00375   296.002   1137.797   2.085   268.000   10.720   10.720   0.000   0.000
0.02375   0.00375   296.563   1137.797   2.085   268.000   10.720   10.720   0.000   0.000
0.02625   0.00375   297.208   1137.797   2.085   268.000   10.720   10.720   0.000   0.000
0.02875   0.00375   297.942   1137.797   2.085   268.000   10.720   10.720   0.000   0.000
0.03125   0.00375   298.768   1137.797   2.085   268.000   10.720   10.720   0.000   0.000
0.03375   0.00375   299.688   1137.797   2.085   268.000   10.720   10.720   0.000   0.000
0.03625   0.00375   300.704   1137.797   2.085   268.000   10.720   10.720   0.000   0.000
0.03875   0.00375   301.820   1137.797   2.085   268.000   10.720   10.720   0.000   0.000
0.04125   0.00375   303.039   1137.797   2.085   268.000   10.720   10.720   0.000   0.000
0.04375   0.00375   304.366   1137.797   2.085   268.000   10.720   10.720   0.000   0.000
0.04625   0.00375   305.811   1137.797   2.085   268.000   10.720   10.720   0.000   0.000
0.04875   0.00375   307.414   1137.797   2.085   268.000   10.720   0.000   0.000   16.258
0.00125   0.00325   293.990   1137.797   268.000   268.000   0.000   10.720   0.000   0.000
0.00375   0.00325   294.040   1137.797   268.000   268.000   10.720   10.720   0.000   0.000
0.00625   0.00325   294.141   1137.797   268.000   268.000   10.720   10.720   0.000   0.000
0.00875   0.00325   294.296   1137.797   268.000   268.000   10.720   10.720   0.000   0.000
0.01125   0.00325   294.507   1137.797   268.000   268.000   10.720   10.720   0.000   0.000
0.01375   0.00325   294.778   1137.797   268.000   268.000   10.720   10.720   0.000   0.000
0.01625   0.00325   295.114   1137.797   268.000   268.000   10.720   10.720   0.000   0.000
0.01875   0.00325   295.519   1137.797   268.000   268.000   10.720   10.720   0.000   0.000
0.02125   0.00325   295.998   1137.797   268.000   268.000   10.720   10.720   0.000   0.000
0.02375   0.00325   296.558   1137.797   268.000   268.000   10.720   10.720   0.000   0.000
0.02625   0.00325   297.201   1137.797   268.000   268.000   10.720   10.720   0.000   0.000
0.02875   0.00325   297.934   1137.797   268.000   268.000   10.720   10.720   0.000   0.000
0.03125   0.00325   298.758   1137.797   268.000   268.000   10.720   10.720   0.000   0.000
0.03375   0.00325   299.677   1137.797   268.000   268.000   10.720   10.720   0.000   0.000
0.03625   0.00325   300.692   1137.797   268.000   268.000   10.720   10.720   0.000   0.000
0.03875   0.00325   301.806   1137.797   268.000   268.000   10.720   10.720   0.000   0.000
0.04125   0.00325   303.024   1137.797   268.000   268.000   10.720   10.720   0.000   0.000
0.04375   0.00325   304.350   1137.797   268.000   268.000   10.720   10.720   0.000   0.000
0.04625   0.00325   305.791   1137.797   268.000   268.000   10.720   10.720   0.000   0.000
0.04875   0.00325   307.363   1137.797   268.000   268.000   10.720   0.000   0.000   16.258
0.00125   0.00275   293.989   1137.797   268.000   268.000   0.000   10.720   0.000   0.000
0.00375   0.00275   294.039   1137.797   268.000   268.000   10.720   10.720   0.000   0.000
0.00625   0.00275   294.141   1137.797   268.000   268.000   10.720   10.720   0.000   0.000
0.00875   0.00275   294.295   1137.797   268.000   268.000   10.720   10.720   0.000   0.000
0.01125   0.00275   294.506   1137.797   268.000   268.000   10.720   10.720   0.000   0.000
0.01375   0.00275   294.777   1137.797   268.000   268.000   10.720   10.720   0.000   0.000
0.01625   0.00275   295.112   1137.797   268.000   268.000   10.720   10.720   0.000   0.000
0.01875   0.00275   295.516   1137.797   268.000   268.000   10.720   10.720   0.000   0.000
0.02125   0.00275   295.995   1137.797   268.000   268.000   10.720   10.720   0.000   0.000
0.02375   0.00275   296.553   1137.797   268.000   268.000   10.720   10.720   0.000   0.000
0.02625   0.00275   297.196   1137.797   268.000   268.000   10.720   10.720   0.000   0.000
0.02875   0.00275   297.927   1137.797   268.000   268.000   10.720   10.720   0.000   0.000
0.03125   0.00275   298.750   1137.797   268.000   268.000   10.720   10.720   0.000   0.000
0.03375   0.00275   299.667   1137.797   268.000   268.000   10.720   10.720   0.000   0.000
0.03625   0.00275   300.680   1137.797   268.000   268.000   10.720   10.720   0.000   0.000
0.03875   0.00275   301.794   1137.797   268.000   268.000   10.720   10.720   0.000   0.000
0.04125   0.00275   303.011   1137.797   268.000   268.000   10.720   10.720   0.000   0.000
0.04375   0.00275   304.336   1137.797   268.000   268.000   10.720   10.720   0.000   0.000
0.04625   0.00275   305.773   1137.797   268.000   268.000   10.720   10.720   0.000   0.000
0.04875   0.00275   307.322   1137.797   268.000   268.000   10.720   0.000   0.000   16.258
0.00125   0.00225   293.989   1137.797   268.000   268.000   0.000   10.720   0.000   0.000
0.00375   0.00225   294.039   1137.797   268.000   268.000   10.720   10.720   0.000   0.000
0.00625   0.00225   294.140   1137.797   268.000   268.000   10.720   10.720   0.000   0.000
0.00875   0.00225   294.294   1137.797   268.000   268.000   10.720   10.720   0.000   0.000
0.01125   0.00225   294.505   1137.797   268.000   268.000   10.720   10.720   0.000   0.000
0.01375   0.00225   294.775   1137.797   268.000   268.000   10.720   10.720   0.000   0.000
0.01625   0.00225   295.110   1137.797   268.000   268.000   10.720   10.720   0.000   0.000
0.01875   0.00225   295.514   1137.797   268.000   268.000   10.720   10.720   0.000   0.000
0.02125   0.00225   295.992   1137.797   268.000   268.000   10.720   10.720   0.000   0.000
0.02375   0.00225   296.549   1137.797   268.000   268.000   10.720   10.720   0.000   0.000
0.02625   0.00225   297.191   1137.797   268.000   268.000   10.720   10.720   0.000   0.000
0.02875   0.00225   297.921   1137.797   268.000   268.000   10.720   10.720   0.000   0.000
0.03125   0.00225   298.743   1137.797   268.000   268.000   10.720   10.720   0.000   0.000
0.03375   0.00225   299.658   1137.797   268.000   268.000   10.720   10.720   0.000   0.000
0.03625   0.00225   300.671   1137.797   268.000   268.000   10.720   10.720   0.000   0.000
0.03875   0.00225   301.784   1137.797   268.000   268.000   10.720   10.720   0.000   0.000
0.04125   0.00225   303.001   1137.797   268.000   268.000   10.720   10.720   0.000   0.000
0.04375   0.00225   304.324   1137.797   268.000   268.000   10.720   10.720   0.000   0.000
0.04625   0.00225   305.757   1137.797   268.000   268.000   10.720   10.720   0.000   0.000
0.04875   0.00225   307.289   1137.797   268.000   268.000   10.720   0.000   0.000   16.259
0.00125   0.00175   293.988   1137.797   268.000   268.000   0.000   10.720   0.000   0.000
0.00375   0.00175   294.038   1137.797   268.000   268.000   10.720   10.720   0.000   0.000
0.00625   0.00175   294.140   1137.797   268.000   268.000   10.720   10.720   0.000   0.000
0.00875   0.00175   294.294   1137.797   268.000   268.000   10.720   10.720   0.000   0.000
0.01125   0.00175   294.504   1137.797   268.000   268.000   10.720   10.720   0.000   0.000
0.01375   0.00175   294.774   1137.797   268.000   268.000   10.720   10.720   0.000   0.000
0.01625   0.00175   295.109   1137.797   268.000   268.000   10.720   10.720   0.000   0.000
0.01875   0.00175   295.512   1137.797   268.000   268.000   10.720   10.720   0.000   0.000
0.02125   0.00175   295.990   1137.797   268.000   268.000   10.720   10.720   0.000   0.000