VARIABLES = X, Y, T, ap,an,as,aw,ae,sp,su
ZONE I=20,J=20, F=POINT,t="8.752"
0.00125   0.00975   293.288   1137.797   0.000   268.000   0.000   10.720   0.000   -0.000
0.00375   0.00975   293.342   1137.797   0.000   268.000   10.720   10.720   0.000   -0.000
0.00625   0.00975   293.454   1137.797   0.000   268.000   10.720   10.720   0.000   -0.000
0.00875   0.00975   293.639   1137.797   0.000   268.000   10.720   10.720   0.000   -0.000
0.01125   0.00975   293.915   1137.797   0.000   268.000   10.720   10.720   0.000   -0.001
0.01375   0.00975   294.307   1137.797   0.000   268.000   10.720   10.720   0.000   -0.001
0.01625   0.00975   294.850   1137.797   0.000   268.000   10.720   10.720   0.000   -0.001
0.01875   0.00975   295.585   1137.797   0.000   268.000   10.720   10.720   0.000   -0.002
0.02125   0.00975   296.562   1137.797   0.000   268.000   10.720   10.720   0.000   -0.003
0.02375   0.00975   297.840   1137.797   0.000   268.000   10.720   10.720   0.000   -0.004
0.02625   0.00975   299.492   1137.797   0.000   268.000   10.720   10.720   0.000   -0.005
0.02875   0.00975   301.639   1137.797   0.000   268.000   10.720   10.720   0.000   -0.006
0.03125   0.00975   304.737   1137.797   0.000   268.000   10.720   10.720   0.000   81.317
0.03375   0.00975   307.047   1137.797   0.000   268.000   10.720   10.720   0.000   81.285
0.03625   0.00975   309.029   1137.797   0.000   268.000   10.720   10.720   0.000   81.258
0.03875   0.00975   310.807   1137.797   0.000   268.000   10.720   10.720   0.000   81.232
0.04125   0.00975   312.459   1137.797   0.000   268.000   10.720   10.720   0.000   81.208
0.04375   0.00975   314.045   1137.797   0.000   268.000   10.720   10.720   0.000   81.185
0.04625   0.00975   315.611   1137.797   0.000   268.000   10.720   10.720   0.000   81.162
0.04875   0.00975   317.171   1137.797   0.000   268.000   10.720   0.000   0.000   97.369
0.00125   0.00925   293.288   1137.797   268.000   268.000   0.000   10.720   0.000   0.000
0.00375   0.00925   293.341   1137.797   268.000   268.000   10.720   10.720   0.000   0.000
0.00625   0.00925   293.454   1137.797   268.000   268.000   10.720   10.720   0.000   0.000
0.00875   0.00925   293.639   1137.797   268.000   268.000   10.720   10.720   0.000   0.000
0.01125   0.00925   293.914   1137.797   268.000   268.000   10.720   10.720   0.000   0.000
0.01375   0.00925   294.306   1137.797   268.000   268.000   10.720   10.720   0.000   0.000
0.01625   0.00925   294.849   1137.797   268.000   268.000   10.720   10.720   0.000   0.000
0.01875   0.00925   295.584   1137.797   268.000   268.000   10.720   10.720   0.000   0.000
0.02125   0.00925   296.560   1137.797   268.000   268.000   10.720   10.720   0.000   0.000
0.02375   0.00925   297.838   1137.797   268.000   268.000   10.720   10.720   0.000   0.000
0.02625   0.00925   299.488   1137.797   268.000   268.000   10.720   10.720   0.000   0.000
0.02875   0.00925   301.619   1137.797   268.000   268.000   10.720   10.720   0.000   0.000
0.03125   0.00925   304.485   1137.797   268.000   268.000   10.720   10.720   0.000   0.000
0.03375   0.00925   306.780   1137.797   268.000   268.000   10.720   10.720   0.000   0.000
0.03625   0.00925   308.760   1137.797   268.000   268.000   10.720   10.720   0.000   0.000
0.03875   0.00925   310.537   1137.797   268.000   268.000   10.720   10.720   0.000   0.000
0.04125   0.00925   312.189   1137.797   268.000   268.000   10.720   10.720   0.000   0.000
0.04375   0.00925   313.775   1137.797   268.000   268.000   10.720   10.720   0.000   0.000
0.04625   0.00925   315.342   1137.797   268.000   268.000   10.720   10.720   0.000   0.000
0.04875   0.00925   316.904   1137.797   268.000   268.000   10.720   0.000   0.000   16.232
0.00125   0.00875   293.288   1137.797   268.000   268.000   0.000   10.720   0.000   0.000
0.00375   0.00875   293.341   1137.797   268.000   268.000   10.720   10.720   0.000   0.000
0.00625   0.00875   293.454   1137.797   268.000   268.000   10.720   10.720   0.000   0.000
0.00875   0.00875   293.638   1137.797   268.000   268.000   10.720   10.720   0.000   0.000
0.01125   0.00875   293.913   1137.797   268.000   268.000   10.720   10.720   0.000   0.000
0.01375   0.00875   294.305   1137.797   268.000   268.000   10.720   10.720   0.000   0.000
0.01625   0.00875   294.848   1137.797   268.000   268.000   10.720   10.720   0.000   0.000
0.01875   0.00875   295.582   1137.797   268.000   268.000   10.720   10.720   0.000   0.000
0.02125   0.00875   296.558   1137.797   268.000   268.000   10.720   10.720   0.000   0.000
0.02375   0.00875   297.834   1137.797   268.000   268.000   10.720   10.720   0.000   0.000
0.02625   0.00875   299.480   1137.797   268.000   268.000   10.720   10.720   0.000   0.000
0.02875   0.00875   301.587   1137.797   268.000   268.000   10.720   10.720   0.000   0.000
0.03125   0.00875   304.278   1137.797   268.000   268.000   10.720   10.720   0.000   0.000
0.03375   0.00875   306.549   1137.797   268.000   268.000   10.720   10.720   0.000   0.000
0.03625   0.00875   308.525   1137.797   268.000   268.000   10.720   10.720   0.000   0.000
0.03875   0.00875   310.301   1137.797   268.000   268.000   10.720   10.720   0.000   0.000
0.04125   0.00875   311.952   1137.797   268.000   268.000   10.720   10.720   0.000   0.000
0.04375   0.00875   313.538   1137.797   268.000   268.000   10.720   10.720   0.000   0.000
0.04625   0.00875   315.105   1137.797   268.000   268.000   10.720   10.720   0.000   0.000
0.04875   0.00875   316.673   1137.797   268.000   268.000   10.720   0.000   0.000   16.233
0.00125   0.00825   293.287   1137.797   268.000   268.000   0.000   10.720   0.000   0.000
0.00375   0.00825   293.341   1137.797   268.000   268.000   10.720   10.720   0.000   0.000
0.00625   0.00825   293.453   1137.797   268.000   268.000   10.720   10.720   0.000   0.000
0.00875   0.00825   293.637   1137.797   268.000   268.000   10.720   10.720   0.000   0.000
0.01125   0.00825   293.912   1137.797   268.000   268.000   10.720   10.720   0.000   0.000
0.01375   0.00825   294.304   1137.797   268.000   268.000   10.720   10.720   0.000   0.000
0.01625   0.00825   294.846   1137.797   268.000   268.000   10.720   10.720   0.000   0.000
0.01875   0.00825   295.579   1137.797   268.000   268.000   10.720   10.720   0.000   0.000
0.02125   0.00825   296.554   1137.797   268.000   268.000   10.720   10.720   0.000   0.000
0.02375   0.00825   297.828   1137.797   268.000   268.000   10.720   10.720   0.000   0.000
0.02625   0.00825   299.469   1137.797   268.000   268.000   10.720   10.720   0.000   0.000
0.02875   0.00825   301.551   1137.797   268.000   268.000   10.720   10.720   0.000   0.000
0.03125   0.00825   304.108   1137.797   268.000   268.000   10.720   10.720   0.000   0.000
0.03375   0.00825   306.353   1137.797   268.000   268.000   10.720   10.720   0.000   0.000
0.03625   0.00825   308.323   1137.797   268.000   268.000   10.720   10.720   0.000   0.000
0.03875   0.00825   310.098   1137.797   268.000   268.000   10.720   10.720   0.000   0.000
0.04125   0.00825   311.747   1137.797   268.000   268.000   10.720   10.720   0.000   0.000
0.04375   0.00825   313.333   1137.797   268.000   268.000   10.720   10.720   0.000   0.000
0.04625   0.00825   314.902   1137.797   268.000   268.000   10.720   10.720   0.000   0.000
0.04875   0.00825   316.477   1137.797   268.000   268.000   10.720   0.000   0.000   16.233
0.00125   0.00775   293.287   1137.797   268.000   268.000   0.000   10.720   0.000   0.000
0.00375   0.00775   293.340   1137.797   268.000   268.000   10.720   10.720   0.000   0.000
0.00625   0.00775   293.452   1137.797   268.000   268.000   10.720   10.720   0.000   0.000
0.00875   0.00775   293.636   1137.797   268.000   268.000   10.720   10.720   0.000   0.000
0.01125   0.00775   293.911   1137.797   268.000   268.000   10.720   10.720   0.000   0.000
0.01375   0.00775   294.302   1137.797   268.000   268.000   10.720   10.720   0.000   0.000
0.01625   0.00775   294.843   1137.797   268.000   268.000   10.720   10.720   0.000   0.000
0.01875   0.00775   295.575   1137.797   268.000   268.000   10.720   10.720   0.000   0.000
0.02125   0.00775   296.549   1137.797   268.000   268.000   10.720   10.720   0.000   0.000
0.02375   0.00775   297.821   1137.797   268.000   268.000   10.720   10.720   0.000   0.000
0.02625   0.00775   299.456   1137.797   268.000   268.000   10.720   10.720   0.000   0.000
0.02875   0.00775   301.513   1137.797   268.000   268.000   10.720   10.720   0.000   0.000
0.03125   0.00775   303.971   1137.797   268.000   268.000   10.720   10.720   0.000   0.000
0.03375   0.00775   306.192   1137.797   268.000   268.000   10.720   10.720   0.000   0.000
0.03625   0.00775   308.156   1137.797   268.000   268.000   10.720   10.720   0.000   0.000
0.03875   0.00775   309.928   1137.797   268.000   268.000   10.720   10.720   0.000   0.000
0.04125   0.00775   311.576   1137.797   268.000   268.000   10.720   10.720   0.000   0.000
0.04375   0.00775   313.161   1137.797   268.000   268.000   10.720   10.720   0.000   0.000
0.04625   0.00775   314.732   1137.797   268.000   268.000   10.720   10.720   0.000   0.000
0.04875   0.00775   316.317   1137.797   268.000   268.000   10.720   0.000   0.000   16.234
0.00125   0.00725   293.286   1137.797   268.000   268.000   0.000   10.720   0.000   0.000
0.00375   0.00725   293.339   1137.797   268.000   268.000   10.720   10.720   0.000   0.000
0.00625   0.00725   293.451   1137.797   268.000   268.000   10.720   10.720   0.000   0.000
0.00875   0.00725   293.635   1137.797   268.000   268.000   10.720   10.720   0.000   0.000
0.01125   0.00725   293.909   1137.797   268.000   268.000   10.720   10.720   0.000   0.000
0.01375   0.00725   294.299   1137.797   268.000   268.000   10.720   10.720   0.000   0.000
0.01625   0.00725   294.839   1137.797   268.000   268.000   10.720   10.720   0.000   0.000
0.01875   0.00725   295.571   1137.797   268.000   268.000   10.720   10.720   0.000   0.000
0.02125   0.00725   296.542   1137.797   268.000   268.000   10.720   10.720   0.000   0.000
0.02375   0.00725   297.812   1137.797   268.000   268.000   10.720   10.720   0.000   0.000
0.02625   0.00725   299.441   1137.797   268.000   268.000   10.720   10.720   0.000   0.000
0.02875   0.00725   301.477   1137.797   268.000   268.000   10.720   10.720   0.000   0.000
0.03125   0.00725   303.864   1137.797   268.000   268.000   10.720   10.720   0.000   0.000
0.03375   0.00725   306.064   1137.797   268.000   268.000   10.720   10.720   0.000   0.000
0.03625   0.00725   308.022   1137.797   268.000   268.000   10.720   10.720   0.000   0.000
0.03875   0.00725   309.791   1137.797   268.000   268.000   10.720   10.720   0.000   0.000
0.04125   0.00725   311.437   1137.797   268.000   268.000   10.720   10.720   0.000   0.000
0.04375   0.00725   313.021   1137.797   268.000   268.000   10.720   10.720   0.000   0.000
0.04625   0.00725   314.594   1137.797   268.000   268.000   10.720   10.720   0.000   0.000
0.04875   0.00725   316.194   1137.797   268.000   268.000   10.720   0.000   0.000   16.234
0.00125   0.00675   293.285   1137.797   268.000   268.000   0.000   10.720   0.000   0.000
0.00375   0.00675   293.338   1137.797   268.000   268.000   10.720   10.720   0.000   0.000
0.00625   0.00675   293.450   1137.797   268.000   268.000   10.720   10.720   0.000   0.000
0.00875   0.00675   293.633   1137.797   268.000   268.000   10.720   10.720   0.000   0.000
0.01125   0.00675   293.907   1137.797   268.000   268.000   10.720   10.720   0.000   0.000
0.01375   0.00675   294.296   1137.797   268.000   268.000   10.720   10.720   0.000   0.000
0.01625   0.00675   294.835   1137.797   268.000   268.000   10.720   10.720   0.000   0.000
0.01875   0.00675   295.565   1137.797   268.000   268.000   10.720   10.720   0.000   0.000
0.02125   0.00675   296.535   1137.797   268.000   268.000   10.720   10.720   0.000   0.000
0.02375   0.00675   297.802   1137.797   268.000   268.000   10.720   10.720   0.000   0.000
0.02625   0.00675   299.425   1137.797   268.000   268.000   10.720   10.720   0.000   0.000
0.02875   0.00675   301.446   1137.797   268.000   268.000   10.720   10.720   0.000   0.000
0.03125   0.00675   303.786   1137.797   268.000   268.000   10.720   10.720   0.000   0.000
0.03375   0.00675   305.970   1137.797   268.000   268.000   10.720   10.720   0.000   0.000
0.03625   0.00675   307.922   1137.797   268.000   268.000   10.720   10.720   0.000   0.000
0.03875   0.00675   309.688   1137.797   268.000   268.000   10.720   10.720   0.000   0.000
0.04125   0.00675   311.331   1137.797   268.000   268.000   10.720   10.720   0.000   0.000
0.04375   0.00675   312.913   1137.797   268.000   268.000   10.720   10.720   0.000   0.000
0.04625   0.00675   314.489   1137.797   268.000   268.000   10.720   10.720   0.000   0.000
0.04875   0.00675   316.108   1137.797   268.000   268.000   10.720   0.000   0.000   16.234
0.00125   0.00625   293.284   1137.797   268.000   2.085   0.000   10.720   0.000   0.000
0.00375   0.00625   293.337   1137.797   268.000   2.085   10.720   10.720   0.000   0.000
0.00625   0.00625   293.449   1137.797   268.000   2.085   10.720   10.720   0.000   0.000
0.00875   0.00625   293.631   1137.797   268.000   2.085   10.720   10.720   0.000   0.000
0.01125   0.00625   293.904   1137.797   268.000   2.085   10.720   10.720   0.000   0.000
0.01375   0.00625   294.293   1137.797   268.000   2.085   10.720   10.720   0.000   0.000
0.01625   0.00625   294.830   1137.797   268.000   2.085   10.720   10.720   0.000   0.000
0.01875   0.00625   295.558   1137.797   268.000   2.085   10.720   10.720   0.000   0.000
0.02125   0.00625   296.526   1137.797   268.000   2.085   10.720   10.720   0.000   0.000
0.02375   0.00625   297.790   1137.797   268.000   2.085   10.720   10.720   0.000   0.000
0.02625   0.00625   299.409   1137.797   268.000   2.085   10.720   10.720   0.000   0.000
0.02875   0.00625   301.419   1137.797   268.000   2.085   10.720   10.720   0.000   0.000
0.03125   0.00625   303.734   1137.797   268.000   2.085   10.720   10.720   0.000   0.000
0.03375   0.00625   305.907   1137.797   268.000   2.085   10.720   10.720   0.000   0.000
0.03625   0.00625   307.855   1137.797   268.000   2.085   10.720   10.720   0.000   0.000
0.03875   0.00625   309.617   1137.797   268.000   2.085   10.720   10.720   0.000   0.000
0.04125   0.00625   311.258   1137.797   268.000   2.085   10.720   10.720   0.000   0.000
0.04375   0.00625   312.838   1137.797   268.000   2.085   10.720   10.720   0.000   0.000
0.04625   0.00625   314.415   1137.797   268.000   2.085   10.720   10.720   0.000   0.000
0.04875   0.00625   316.060   1137.797   268.000   2.085   10.720   0.000   0.000   16.234
0.00125   0.00575   293.145   686.719   2.085   1.046   0.000   0.042   0.000   0.000
0.00375   0.00575   293.176   686.719   2.085   1.046   0.042   0.042   0.000   0.000
0.00625   0.00575   293.242   686.719   2.085   1.046   0.042   0.042   0.000   0.000
0.00875   0.00575   293.352   686.719   2.085   1.046   0.042   0.042   0.000   0.000
0.01125   0.00575   293.520   686.719   2.085   1.046   0.042   0.042   0.000   0.000
0.01375   0.00575   293.765   686.719   2.085   1.046   0.042   0.042   0.000   0.000
0.01625   0.00575   294.113   686.719   2.085   1.046   0.042   0.042   0.000   0.000
0.01875   0.00575   294.597   686.719   2.085   1.046   0.042   0.042   0.000   0.000
0.02125   0.00575   295.258   686.719   2.085   1.046   0.042   0.042   0.000   0.000
0.02375   0.00575   296.143   686.719   2.085   1.046   0.042   0.042   0.000   0.000
0.02625   0.00575   297.303   686.719   2.085   1.046   0.042   0.042   0.000   0.000
0.02875   0.00575   298.773   686.719   2.085   1.046   0.042   0.042   0.000   0.000
0.03125   0.00575   300.484   686.719   2.085   1.046   0.042   0.042   0.000   0.000
0.03375   0.00575   302.085   686.719   2.085   1.046   0.042   0.042   0.000   0.000
0.03625   0.00575   303.514   686.719   2.085   1.046   0.042   0.042   0.000   0.000
0.03875   0.00575   304.813   686.719   2.085   1.046   0.042   0.042   0.000   0.000
0.04125   0.00575   306.047   686.719   2.085   1.046   0.042   0.042   0.000   0.000
0.04375   0.00575   307.286   686.719   2.085   1.046   0.042   0.042   0.000   0.000
0.04625   0.00575   308.759   686.719   2.085   1.046   0.042   0.042   0.000   0.000
0.04875   0.00575   314.901   686.719   2.085   1.046   0.042   0.000   0.000   6.089
0.00125   0.00525   293.046   686.719   1.046   1.046   0.000   0.042   0.000   0.000
0.00375   0.00525   293.057   686.719   1.046   1.046   0.042   0.042   0.000   0.000
0.00625   0.00525   293.083   686.719   1.046   1.046   0.042   0.042   0.000   0.000
0.00875   0.00525   293.126   686.719   1.046   1.046   0.042   0.042   0.000   0.000
0.01125   0.00525   293.194   686.719   1.046   1.046   0.042   0.042   0.000   0.000
0.01375   0.00525   293.298   686.719   1.046   1.046   0.042   0.042   0.000   0.000
0.01625   0.00525   293.450   686.719   1.046   1.046   0.042   0.042   0.000   0.000
0.01875   0.00525   293.672   686.719   1.046   1.046   0.042   0.042   0.000   0.000
0.02125   0.00525   293.987   686.719   1.046   1.046   0.042   0.042   0.000   0.000
0.02375   0.00525   294.426   686.719   1.046   1.046   0.042   0.042   0.000   0.000
0.02625   0.00525   295.024   686.719   1.046   1.046   0.042   0.042   0.000   0.000
0.02875   0.00525   295.808   686.719   1.046   1.046   0.042   0.042   0.000   0.000
0.03125   0.00525   296.741   686.719   1.046   1.046   0.042   0.042   0.000   0.000
0.03375   0.00525   297.619   686.719   1.046   1.046   0.042   0.042   0.000   0.000
0.03625   0.00525   298.413   686.719   1.046   1.046   0.042   0.042   0.000   0.000
0.03875   0.00525   299.162   686.719   1.046   1.046   0.042   0.042   0.000   0.000
0.04125   0.00525   299.924   686.719   1.046   1.046   0.042   0.042   0.000   0.000
0.04375   0.00525   300.768   686.719   1.046   1.046   0.042   0.042   0.000   0.000
0.04625   0.00525   302.133   686.719   1.046   1.046   0.042   0.042   0.000   0.000
0.04875   0.00525   312.321   686.719   1.046   1.046   0.042   0.000   0.000   6.092
0.00125   0.00475   293.014   686.719   1.046   1.046   0.000   0.042   0.000   0.000
0.00375   0.00475   293.018   686.719   1.046   1.046   0.042   0.042   0.000   0.000
0.00625   0.00475   293.028   686.719   1.046   1.046   0.042   0.042   0.000   0.000
0.00875   0.00475   293.044   686.719   1.046   1.046   0.042   0.042   0.000   0.000
0.01125   0.00475   293.071   686.719   1.046   1.046   0.042   0.042   0.000   0.000
0.01375   0.00475   293.113   686.719   1.046   1.046   0.042   0.042   0.000   0.000
0.01625   0.00475   293.178   686.719   1.046   1.046   0.042   0.042   0.000   0.000
0.01875   0.00475   293.277   686.719   1.046   1.046   0.042   0.042   0.000   0.000
0.02125   0.00475   293.423   686.719   1.046   1.046   0.042   0.042   0.000   0.000
0.02375   0.00475   293.635   686.719   1.046   1.046   0.042   0.042   0.000   0.000
0.02625   0.00475   293.935   686.719   1.046   1.046   0.042   0.042   0.000   0.000
0.02875   0.00475   294.343   686.719   1.046   1.046   0.042   0.042   0.000   0.000
0.03125   0.00475   294.846   686.719   1.046   1.046   0.042   0.042   0.000   0.000
0.03375   0.00475   295.349   686.719   1.046   1.046   0.042   0.042   0.000   0.000
0.03625   0.00475   295.847   686.719   1.046   1.046   0.042   0.042   0.000   0.000
0.03875   0.00475   296.374   686.719   1.046   1.046   0.042   0.042   0.000   0.000
0.04125   0.00475   296.975   686.719   1.046   1.046   0.042   0.042   0.000   0.000
0.04375   0.00475   297.709   686.719   1.046   1.046   0.042   0.042   0.000   0.000
0.04625   0.00475   299.006   686.719   1.046   1.046   0.042   0.042   0.000   0.000
0.04875   0.00475   309.163   686.719   1.046   1.046   0.042   0.000   0.000   6.095
0.00125   0.00425   293.007   686.719   1.046   2.085   0.000   0.042   0.000   0.000
0.00375   0.00425   293.009   686.719   1.046   2.085   0.042   0.042   0.000   0.000
0.00625   0.00425   293.014   686.719   1.046   2.085   0.042   0.042   0.000   0.000
0.00875   0.00425   293.023   686.719   1.046   2.085   0.042   0.042   0.000   0.000
0.01125   0.00425   293.038   686.719   1.046   2.085   0.042   0.042   0.000   0.000
0.01375   0.00425   293.062   686.719   1.046   2.085   0.042   0.042   0.000   0.000
0.01625   0.00425   293.099   686.719   1.046   2.085   0.042   0.042   0.000   0.000
0.01875   0.00425   293.156   686.719   1.046   2.085   0.042   0.042   0.000   0.000
0.02125   0.00425   293.241   686.719   1.046   2.085   0.042   0.042   0.000   0.000
0.02375   0.00425   293.366   686.719   1.046   2.085   0.042   0.042   0.000   0.000
0.02625   0.00425   293.545   686.719   1.046   2.085   0.042   0.042   0.000   0.000
0.02875   0.00425   293.794   686.719   1.046   2.085   0.042   0.042   0.000   0.000
0.03125   0.00425   294.119   686.719   1.046   2.085   0.042   0.042   0.000   0.000
0.03375   0.00425   294.505   686.719   1.046   2.085   0.042   0.042   0.000   0.000
0.03625   0.00425   294.965   686.719   1.046   2.085   0.042   0.042   0.000   0.000
0.03875   0.00425   295.525   686.719   1.046   2.085   0.042   0.042   0.000   0.000
0.04125   0.00425   296.217   686.719   1.046   2.085   0.042   0.042   0.000   0.000
0.04375   0.00425   297.079   686.719   1.046   2.085   0.042   0.042   0.000   0.000
0.04625   0.00425   298.316   686.719   1.046   2.085   0.042   0.042   0.000   0.000
0.04875   0.00425   304.348   686.719   1.046   2.085   0.042   0.000   0.000   6.100
0.00125   0.00375   293.010   1137.797   2.085   268.000   0.000   10.720   0.000   0.000
0.00375   0.00375   293.013   1137.797   2.085   268.000   10.720   10.720   0.000   0.000
0.00625   0.00375   293.019   1137.797   2.085   268.000   10.720   10.720   0.000   0.000
0.00875   0.00375   293.030   1137.797   2.085   268.000   10.720   10.720   0.000   0.000
0.01125   0.00375   293.048   1137.797   2.085   268.000   10.720   10.720   0.000   0.000
0.01375   0.00375   293.075   1137.797   2.085   268.000   10.720   10.720   0.000   0.000
0.01625   0.00375   293.117   1137.797   2.085   268.000   10.720   10.720   0.000   0.000
0.01875   0.00375   293.179   1137.797   2.085   268.000   10.720   10.720   0.000   0.000
0.02125   0.00375   293.268   1137.797   2.085   268.000   10.720   10.720   0.000   0.000
0.02375   0.00375   293.394   1137.797   2.085   268.000   10.720   10.720   0.000   0.000
0.02625   0.00375   293.569   1137.797   2.085   268.000   10.720   10.720   0.000   0.000
0.02875   0.00375   293.807   1137.797   2.085   268.000   10.720   10.720   0.000   0.000
0.03125   0.00375   294.123   1137.797   2.085   268.000   10.720   10.720   0.000   0.000
0.03375   0.00375   294.535   1137.797   2.085   268.000   10.720   10.720   0.000   0.000
0.03625   0.00375   295.062   1137.797   2.085   268.000   10.720   10.720   0.000   0.000
0.03875   0.00375   295.725   1137.797   2.085   268.000   10.720   10.720   0.000   0.000
0.04125   0.00375   296.548   1137.797   2.085   268.000   10.720   10.720   0.000   0.000
0.04375   0.00375   297.552   1137.797   2.085   268.000   10.720   10.720   0.000   0.000
0.04625   0.00375   298.762   1137.797   2.085   268.000   10.720   10.720   0.000   0.000
0.04875   0.00375   300.233   1137.797   2.085   268.000   10.720   0.000   0.000   16.276
0.00125   0.00325   293.010   1137.797   268.000   268.000   0.000   10.720   0.000   0.000
0.00375   0.00325   293.013   1137.797   268.000   268.000   10.720   10.720   0.000   0.000
0.00625   0.00325   293.019   1137.797   268.000   268.000   10.720   10.720   0.000   0.000
0.00875   0.00325   293.030   1137.797   268.000   268.000   10.720   10.720   0.000   0.000
0.01125   0.00325   293.048   1137.797   268.000   268.000   10.720   10.720   0.000   0.000
0.01375   0.00325   293.075   1137.797   268.000   268.000   10.720   10.720   0.000   0.000
0.01625   0.00325   293.117   1137.797   268.000   268.000   10.720   10.720   0.000   0.000
0.01875   0.00325   293.179   1137.797   268.000   268.000   10.720   10.720   0.000   0.000
0.02125   0.00325   293.268   1137.797   268.000   268.000   10.720   10.720   0.000   0.000
0.02375   0.00325   293.394   1137.797   268.000   268.000   10.720   10.720   0.000   0.000
0.02625   0.00325   293.569   1137.797   268.000   268.000   10.720   10.720   0.000   0.000
0.02875   0.00325   293.807   1137.797   268.000   268.000   10.720   10.720   0.000   0.000
0.03125   0.00325   294.123   1137.797   268.000   268.000   10.720   10.720   0.000   0.000
0.03375   0.00325   294.535   1137.797   268.000   268.000   10.720   10.720   0.000   0.000
0.03625   0.00325   295.063   1137.797   268.000   268.000   10.720   10.720   0.000   0.000
0.03875   0.00325   295.727   1137.797   268.000   268.000   10.720   10.720   0.000   0.000
0.04125   0.00325   296.550   1137.797   268.000   268.000   10.720   10.720   0.000   0.000
0.04375   0.00325   297.555   1137.797   268.000   268.000   10.720   10.720   0.000   0.000
0.04625   0.00325   298.764   1137.797   268.000   268.000   10.720   10.720   0.000   0.000
0.04875   0.00325   300.207   1137.797   268.000   268.000   10.720   0.000   0.000   16.277
0.00125   0.00275   293.010   1137.797   268.000   268.000   0.000   10.720   0.000   0.000
0.00375   0.00275   293.013   1137.797   268.000   268.000   10.720   10.720   0.000   0.000
0.00625   0.00275   293.019   1137.797   268.000   268.000   10.720   10.720   0.000   0.000
0.00875   0.00275   293.030   1137.797   268.000   268.000   10.720   10.720   0.000   0.000
0.01125   0.00275   293.048   1137.797   268.000   268.000   10.720   10.720   0.000   0.000
0.01375   0.00275   293.076   1137.797   268.000   268.000   10.720   10.720   0.000   0.000
0.01625   0.00275   293.117   1137.797   268.000   268.000   10.720   10.720   0.000   0.000
0.01875   0.00275   293.179   1137.797   268.000   268.000   10.720   10.720   0.000   0.000
0.02125   0.00275   293.268   1137.797   268.000   268.000   10.720   10.720   0.000   0.000
0.02375   0.00275   293.395   1137.797   268.000   268.000   10.720   10.720   0.000   0.000
0.02625   0.00275   293.570   1137.797   268.000   268.000   10.720   10.720   0.000   0.000
0.02875   0.00275   293.807   1137.797   268.000   268.000   10.720   10.720   0.000   0.000
0.03125   0.00275   294.123   1137.797   268.000   268.000   10.720   10.720   0.000   0.000
0.03375   0.00275   294.535   1137.797   268.000   268.000   10.720   10.720   0.000   0.000
0.03625   0.00275   295.063   1137.797   268.000   268.000   10.720   10.720   0.000   0.000
0.03875   0.00275   295.728   1137.797   268.000   268.000   10.720   10.720   0.000   0.000
0.04125   0.00275   296.552   1137.797   268.000   268.000   10.720   10.720   0.000   0.000
0.04375   0.00275   297.557   1137.797   268.000   268.000   10.720   10.720   0.000   0.000
0.04625   0.00275   298.763   1137.797   268.000   268.000   10.720   10.720   0.000   0.000
0.04875   0.00275   300.187   1137.797   268.000   268.000   10.720   0.000   0.000   16.277
0.00125   0.00225   293.010   1137.797   268.000   268.000   0.000   10.720   0.000   0.000
0.00375   0.00225   293.013   1137.797   268.000   268.000   10.720   10.720   0.000   0.000
0.00625   0.00225   293.019   1137.797   268.000   268.000   10.720   10.720   0.000   0.000
0.00875   0.00225   293.030   1137.797   268.000   268.000   10.720   10.720   0.000   0.000
0.01125   0.00225   293.048   1137.797   268.000   268.000   10.720   10.720   0.000   0.000
0.01375   0.00225   293.076   1137.797   268.000   268.000   10.720   10.720   0.000   0.000
0.01625   0.00225   293.117   1137.797   268.000   268.000   10.720   10.720   0.000   0.000
0.01875   0.00225   293.179   1137.797   268.000   268.000   10.720   10.720   0.000   0.000
0.02125   0.00225   293.268   1137.797   268.000   268.000   10.720   10.720   0.000   0.000
0.02375   0.00225   293.395   1137.797   268.000   268.000   10.720   10.720   0.000   0.000
0.02625   0.00225   293.570   1137.797   268.000   268.000   10.720   10.720   0.000   0.000
0.02875   0.00225   293.807   1137.797   268.000   268.000   10.720   10.720   0.000   0.000
0.03125   0.00225   294.123   1137.797   268.000   268.000   10.720   10.720   0.000   0.000
0.03375   0.00225   294.536   1137.797   268.000   268.000   10.720   10.720   0.000   0.000
0.03625   0.00225   295.064   1137.797   268.000   268.000   10.720   10.720   0.000   0.000
0.03875   0.00225   295.729   1137.797   268.000   268.000   10.720   10.720   0.000   0.000
0.04125   0.00225   296.554   1137.797   268.000   268.000   10.720   10.720   0.000   0.000
0.04375   0.00225   297.558   1137.797   268.000   268.000   10.720   10.720   0.000   0.000
0.04625   0.00225   298.762   1137.797   268.000   268.000   10.720   10.720   0.000   0.000
0.04875   0.00225   300.171   1137.797   268.000   268.000   10.720   0.000   0.000   16.277
0.00125   0.00175   293.010   1137.797   268.000   268.000   0.000   10.720   0.000   0.000
0.00375   0.00175   293.013   1137.797   268.000   268.000   10.720   10.720   0.000   0.000
0.00625   0.00175   293.019   1137.797   268.000   268.000   10.720   10.720   0.000   0.000
0.00875   0.00175   293.030   1137.797   268.000   268.000   10.720   10.720   0.000   0.000
0.01125   0.00175   293.048   1137.797   268.000   268.000   10.720   10.720   0.000   0.000
0.01375   0.00175   293.076   1137.797   268.000   268.000   10.720   10.720   0.000   0.000
0.01625   0.00175   293.117   1137.797   268.000   268.000   10.720   10.720   0.000   0.000
0.01875   0.00175   293.179   1137.797   268.000   268.000   10.720   10.720   0.000   0.000
0.02125   0.00175   293.269   1137.797   268.000   268.000   10.720   10.720   0.000   0.000