VARIABLES = X, Y, T, ap,an,as,aw,ae,sp,su
ZONE I=20,J=20, F=POINT,t="21.892"
0.00125   0.00975   297.149   1137.797   0.000   268.000   0.000   10.720   0.000   -0.003
0.00375   0.00975   297.366   1137.797   0.000   268.000   10.720   10.720   0.000   -0.003
0.00625   0.00975   297.804   1137.797   0.000   268.000   10.720   10.720   0.000   -0.004
0.00875   0.00975   298.475   1137.797   0.000   268.000   10.720   10.720   0.000   -0.004
0.01125   0.00975   299.393   1137.797   0.000   268.000   10.720   10.720   0.000   -0.005
0.01375   0.00975   300.579   1137.797   0.000   268.000   10.720   10.720   0.000   -0.006
0.01625   0.00975   302.059   1137.797   0.000   268.000   10.720   10.720   0.000   -0.007
0.01875   0.00975   303.860   1137.797   0.000   268.000   10.720   10.720   0.000   -0.008
0.02125   0.00975   306.016   1137.797   0.000   268.000   10.720   10.720   0.000   -0.010
0.02375   0.00975   308.564   1137.797   0.000   268.000   10.720   10.720   0.000   -0.012
0.02625   0.00975   311.549   1137.797   0.000   268.000   10.720   10.720   0.000   -0.014
0.02875   0.00975   315.061   1137.797   0.000   268.000   10.720   10.720   0.000   -0.017
0.03125   0.00975   319.517   1137.797   0.000   268.000   10.720   10.720   0.000   81.102
0.03375   0.00975   323.144   1137.797   0.000   268.000   10.720   10.720   0.000   81.045
0.03625   0.00975   326.361   1137.797   0.000   268.000   10.720   10.720   0.000   80.992
0.03875   0.00975   329.249   1137.797   0.000   268.000   10.720   10.720   0.000   80.944
0.04125   0.00975   331.848   1137.797   0.000   268.000   10.720   10.720   0.000   80.900
0.04375   0.00975   334.183   1137.797   0.000   268.000   10.720   10.720   0.000   80.859
0.04625   0.00975   336.270   1137.797   0.000   268.000   10.720   10.720   0.000   80.821
0.04875   0.00975   338.096   1137.797   0.000   268.000   10.720   0.000   0.000   96.953
0.00125   0.00925   297.148   1137.797   268.000   268.000   0.000   10.720   0.000   0.000
0.00375   0.00925   297.365   1137.797   268.000   268.000   10.720   10.720   0.000   0.000
0.00625   0.00925   297.803   1137.797   268.000   268.000   10.720   10.720   0.000   0.000
0.00875   0.00925   298.473   1137.797   268.000   268.000   10.720   10.720   0.000   0.000
0.01125   0.00925   299.392   1137.797   268.000   268.000   10.720   10.720   0.000   0.000
0.01375   0.00925   300.578   1137.797   268.000   268.000   10.720   10.720   0.000   0.000
0.01625   0.00925   302.057   1137.797   268.000   268.000   10.720   10.720   0.000   0.000
0.01875   0.00925   303.857   1137.797   268.000   268.000   10.720   10.720   0.000   0.000
0.02125   0.00925   306.013   1137.797   268.000   268.000   10.720   10.720   0.000   0.000
0.02375   0.00925   308.560   1137.797   268.000   268.000   10.720   10.720   0.000   0.000
0.02625   0.00925   311.544   1137.797   268.000   268.000   10.720   10.720   0.000   0.000
0.02875   0.00925   315.039   1137.797   268.000   268.000   10.720   10.720   0.000   0.000
0.03125   0.00925   319.265   1137.797   268.000   268.000   10.720   10.720   0.000   0.000
0.03375   0.00925   322.877   1137.797   268.000   268.000   10.720   10.720   0.000   0.000
0.03625   0.00925   326.091   1137.797   268.000   268.000   10.720   10.720   0.000   0.000
0.03875   0.00925   328.979   1137.797   268.000   268.000   10.720   10.720   0.000   0.000
0.04125   0.00925   331.578   1137.797   268.000   268.000   10.720   10.720   0.000   0.000
0.04375   0.00925   333.913   1137.797   268.000   268.000   10.720   10.720   0.000   0.000
0.04625   0.00925   336.001   1137.797   268.000   268.000   10.720   10.720   0.000   0.000
0.04875   0.00925   337.830   1137.797   268.000   268.000   10.720   0.000   0.000   16.165
0.00125   0.00875   297.146   1137.797   268.000   268.000   0.000   10.720   0.000   0.000
0.00375   0.00875   297.362   1137.797   268.000   268.000   10.720   10.720   0.000   0.000
0.00625   0.00875   297.800   1137.797   268.000   268.000   10.720   10.720   0.000   0.000
0.00875   0.00875   298.471   1137.797   268.000   268.000   10.720   10.720   0.000   0.000
0.01125   0.00875   299.388   1137.797   268.000   268.000   10.720   10.720   0.000   0.000
0.01375   0.00875   300.574   1137.797   268.000   268.000   10.720   10.720   0.000   0.000
0.01625   0.00875   302.053   1137.797   268.000   268.000   10.720   10.720   0.000   0.000
0.01875   0.00875   303.853   1137.797   268.000   268.000   10.720   10.720   0.000   0.000
0.02125   0.00875   306.008   1137.797   268.000   268.000   10.720   10.720   0.000   0.000
0.02375   0.00875   308.553   1137.797   268.000   268.000   10.720   10.720   0.000   0.000
0.02625   0.00875   311.533   1137.797   268.000   268.000   10.720   10.720   0.000   0.000
0.02875   0.00875   315.005   1137.797   268.000   268.000   10.720   10.720   0.000   0.000
0.03125   0.00875   319.055   1137.797   268.000   268.000   10.720   10.720   0.000   0.000
0.03375   0.00875   322.644   1137.797   268.000   268.000   10.720   10.720   0.000   0.000
0.03625   0.00875   325.855   1137.797   268.000   268.000   10.720   10.720   0.000   0.000
0.03875   0.00875   328.741   1137.797   268.000   268.000   10.720   10.720   0.000   0.000
0.04125   0.00875   331.340   1137.797   268.000   268.000   10.720   10.720   0.000   0.000
0.04375   0.00875   333.675   1137.797   268.000   268.000   10.720   10.720   0.000   0.000
0.04625   0.00875   335.764   1137.797   268.000   268.000   10.720   10.720   0.000   0.000
0.04875   0.00875   337.599   1137.797   268.000   268.000   10.720   0.000   0.000   16.166
0.00125   0.00825   297.143   1137.797   268.000   268.000   0.000   10.720   0.000   0.000
0.00375   0.00825   297.359   1137.797   268.000   268.000   10.720   10.720   0.000   0.000
0.00625   0.00825   297.797   1137.797   268.000   268.000   10.720   10.720   0.000   0.000
0.00875   0.00825   298.467   1137.797   268.000   268.000   10.720   10.720   0.000   0.000
0.01125   0.00825   299.384   1137.797   268.000   268.000   10.720   10.720   0.000   0.000
0.01375   0.00825   300.569   1137.797   268.000   268.000   10.720   10.720   0.000   0.000
0.01625   0.00825   302.047   1137.797   268.000   268.000   10.720   10.720   0.000   0.000
0.01875   0.00825   303.846   1137.797   268.000   268.000   10.720   10.720   0.000   0.000
0.02125   0.00825   305.999   1137.797   268.000   268.000   10.720   10.720   0.000   0.000
0.02375   0.00825   308.543   1137.797   268.000   268.000   10.720   10.720   0.000   0.000
0.02625   0.00825   311.517   1137.797   268.000   268.000   10.720   10.720   0.000   0.000
0.02875   0.00825   314.964   1137.797   268.000   268.000   10.720   10.720   0.000   0.000
0.03125   0.00825   318.882   1137.797   268.000   268.000   10.720   10.720   0.000   0.000
0.03375   0.00825   322.445   1137.797   268.000   268.000   10.720   10.720   0.000   0.000
0.03625   0.00825   325.650   1137.797   268.000   268.000   10.720   10.720   0.000   0.000
0.03875   0.00825   328.535   1137.797   268.000   268.000   10.720   10.720   0.000   0.000
0.04125   0.00825   331.133   1137.797   268.000   268.000   10.720   10.720   0.000   0.000
0.04375   0.00825   333.468   1137.797   268.000   268.000   10.720   10.720   0.000   0.000
0.04625   0.00825   335.560   1137.797   268.000   268.000   10.720   10.720   0.000   0.000
0.04875   0.00825   337.403   1137.797   268.000   268.000   10.720   0.000   0.000   16.167
0.00125   0.00775   297.138   1137.797   268.000   268.000   0.000   10.720   0.000   0.000
0.00375   0.00775   297.354   1137.797   268.000   268.000   10.720   10.720   0.000   0.000
0.00625   0.00775   297.792   1137.797   268.000   268.000   10.720   10.720   0.000   0.000
0.00875   0.00775   298.461   1137.797   268.000   268.000   10.720   10.720   0.000   0.000
0.01125   0.00775   299.378   1137.797   268.000   268.000   10.720   10.720   0.000   0.000
0.01375   0.00775   300.562   1137.797   268.000   268.000   10.720   10.720   0.000   0.000
0.01625   0.00775   302.039   1137.797   268.000   268.000   10.720   10.720   0.000   0.000
0.01875   0.00775   303.837   1137.797   268.000   268.000   10.720   10.720   0.000   0.000
0.02125   0.00775   305.989   1137.797   268.000   268.000   10.720   10.720   0.000   0.000
0.02375   0.00775   308.530   1137.797   268.000   268.000   10.720   10.720   0.000   0.000
0.02625   0.00775   311.498   1137.797   268.000   268.000   10.720   10.720   0.000   0.000
0.02875   0.00775   314.921   1137.797   268.000   268.000   10.720   10.720   0.000   0.000
0.03125   0.00775   318.739   1137.797   268.000   268.000   10.720   10.720   0.000   0.000
0.03375   0.00775   322.279   1137.797   268.000   268.000   10.720   10.720   0.000   0.000
0.03625   0.00775   325.478   1137.797   268.000   268.000   10.720   10.720   0.000   0.000
0.03875   0.00775   328.361   1137.797   268.000   268.000   10.720   10.720   0.000   0.000
0.04125   0.00775   330.958   1137.797   268.000   268.000   10.720   10.720   0.000   0.000
0.04375   0.00775   333.293   1137.797   268.000   268.000   10.720   10.720   0.000   0.000
0.04625   0.00775   335.387   1137.797   268.000   268.000   10.720   10.720   0.000   0.000
0.04875   0.00775   337.243   1137.797   268.000   268.000   10.720   0.000   0.000   16.167
0.00125   0.00725   297.133   1137.797   268.000   268.000   0.000   10.720   0.000   0.000
0.00375   0.00725   297.349   1137.797   268.000   268.000   10.720   10.720   0.000   0.000
0.00625   0.00725   297.786   1137.797   268.000   268.000   10.720   10.720   0.000   0.000
0.00875   0.00725   298.454   1137.797   268.000   268.000   10.720   10.720   0.000   0.000
0.01125   0.00725   299.370   1137.797   268.000   268.000   10.720   10.720   0.000   0.000
0.01375   0.00725   300.553   1137.797   268.000   268.000   10.720   10.720   0.000   0.000
0.01625   0.00725   302.029   1137.797   268.000   268.000   10.720   10.720   0.000   0.000
0.01875   0.00725   303.825   1137.797   268.000   268.000   10.720   10.720   0.000   0.000
0.02125   0.00725   305.975   1137.797   268.000   268.000   10.720   10.720   0.000   0.000
0.02375   0.00725   308.514   1137.797   268.000   268.000   10.720   10.720   0.000   0.000
0.02625   0.00725   311.476   1137.797   268.000   268.000   10.720   10.720   0.000   0.000
0.02875   0.00725   314.878   1137.797   268.000   268.000   10.720   10.720   0.000   0.000
0.03125   0.00725   318.626   1137.797   268.000   268.000   10.720   10.720   0.000   0.000
0.03375   0.00725   322.145   1137.797   268.000   268.000   10.720   10.720   0.000   0.000
0.03625   0.00725   325.338   1137.797   268.000   268.000   10.720   10.720   0.000   0.000
0.03875   0.00725   328.219   1137.797   268.000   268.000   10.720   10.720   0.000   0.000
0.04125   0.00725   330.814   1137.797   268.000   268.000   10.720   10.720   0.000   0.000
0.04375   0.00725   333.149   1137.797   268.000   268.000   10.720   10.720   0.000   0.000
0.04625   0.00725   335.247   1137.797   268.000   268.000   10.720   10.720   0.000   0.000
0.04875   0.00725   337.119   1137.797   268.000   268.000   10.720   0.000   0.000   16.168
0.00125   0.00675   297.126   1137.797   268.000   268.000   0.000   10.720   0.000   0.000
0.00375   0.00675   297.342   1137.797   268.000   268.000   10.720   10.720   0.000   0.000
0.00625   0.00675   297.778   1137.797   268.000   268.000   10.720   10.720   0.000   0.000
0.00875   0.00675   298.446   1137.797   268.000   268.000   10.720   10.720   0.000   0.000
0.01125   0.00675   299.361   1137.797   268.000   268.000   10.720   10.720   0.000   0.000
0.01375   0.00675   300.543   1137.797   268.000   268.000   10.720   10.720   0.000   0.000
0.01625   0.00675   302.017   1137.797   268.000   268.000   10.720   10.720   0.000   0.000
0.01875   0.00675   303.811   1137.797   268.000   268.000   10.720   10.720   0.000   0.000
0.02125   0.00675   305.959   1137.797   268.000   268.000   10.720   10.720   0.000   0.000
0.02375   0.00675   308.495   1137.797   268.000   268.000   10.720   10.720   0.000   0.000
0.02625   0.00675   311.451   1137.797   268.000   268.000   10.720   10.720   0.000   0.000
0.02875   0.00675   314.837   1137.797   268.000   268.000   10.720   10.720   0.000   0.000
0.03125   0.00675   318.539   1137.797   268.000   268.000   10.720   10.720   0.000   0.000
0.03375   0.00675   322.042   1137.797   268.000   268.000   10.720   10.720   0.000   0.000
0.03625   0.00675   325.231   1137.797   268.000   268.000   10.720   10.720   0.000   0.000
0.03875   0.00675   328.109   1137.797   268.000   268.000   10.720   10.720   0.000   0.000
0.04125   0.00675   330.702   1137.797   268.000   268.000   10.720   10.720   0.000   0.000
0.04375   0.00675   333.036   1137.797   268.000   268.000   10.720   10.720   0.000   0.000
0.04625   0.00675   335.137   1137.797   268.000   268.000   10.720   10.720   0.000   0.000
0.04875   0.00675   337.032   1137.797   268.000   268.000   10.720   0.000   0.000   16.168
0.00125   0.00625   297.118   1137.797   268.000   2.085   0.000   10.720   0.000   0.000
0.00375   0.00625   297.334   1137.797   268.000   2.085   10.720   10.720   0.000   0.000
0.00625   0.00625   297.770   1137.797   268.000   2.085   10.720   10.720   0.000   0.000
0.00875   0.00625   298.437   1137.797   268.000   2.085   10.720   10.720   0.000   0.000
0.01125   0.00625   299.350   1137.797   268.000   2.085   10.720   10.720   0.000   0.000
0.01375   0.00625   300.531   1137.797   268.000   2.085   10.720   10.720   0.000   0.000
0.01625   0.00625   302.002   1137.797   268.000   2.085   10.720   10.720   0.000   0.000
0.01875   0.00625   303.795   1137.797   268.000   2.085   10.720   10.720   0.000   0.000
0.02125   0.00625   305.940   1137.797   268.000   2.085   10.720   10.720   0.000   0.000
0.02375   0.00625   308.473   1137.797   268.000   2.085   10.720   10.720   0.000   0.000
0.02625   0.00625   311.425   1137.797   268.000   2.085   10.720   10.720   0.000   0.000
0.02875   0.00625   314.801   1137.797   268.000   2.085   10.720   10.720   0.000   0.000
0.03125   0.00625   318.478   1137.797   268.000   2.085   10.720   10.720   0.000   0.000
0.03375   0.00625   321.971   1137.797   268.000   2.085   10.720   10.720   0.000   0.000
0.03625   0.00625   325.155   1137.797   268.000   2.085   10.720   10.720   0.000   0.000
0.03875   0.00625   328.030   1137.797   268.000   2.085   10.720   10.720   0.000   0.000
0.04125   0.00625   330.621   1137.797   268.000   2.085   10.720   10.720   0.000   0.000
0.04375   0.00625   332.955   1137.797   268.000   2.085   10.720   10.720   0.000   0.000
0.04625   0.00625   335.058   1137.797   268.000   2.085   10.720   10.720   0.000   0.000
0.04875   0.00625   336.982   1137.797   268.000   2.085   10.720   0.000   0.000   16.168
0.00125   0.00575   295.988   686.719   2.085   1.046   0.000   0.042   0.000   0.000
0.00375   0.00575   296.160   686.719   2.085   1.046   0.042   0.042   0.000   0.000
0.00625   0.00575   296.508   686.719   2.085   1.046   0.042   0.042   0.000   0.000
0.00875   0.00575   297.044   686.719   2.085   1.046   0.042   0.042   0.000   0.000
0.01125   0.00575   297.781   686.719   2.085   1.046   0.042   0.042   0.000   0.000
0.01375   0.00575   298.739   686.719   2.085   1.046   0.042   0.042   0.000   0.000
0.01625   0.00575   299.941   686.719   2.085   1.046   0.042   0.042   0.000   0.000
0.01875   0.00575   301.415   686.719   2.085   1.046   0.042   0.042   0.000   0.000
0.02125   0.00575   303.193   686.719   2.085   1.046   0.042   0.042   0.000   0.000
0.02375   0.00575   305.308   686.719   2.085   1.046   0.042   0.042   0.000   0.000
0.02625   0.00575   307.791   686.719   2.085   1.046   0.042   0.042   0.000   0.000
0.02875   0.00575   310.649   686.719   2.085   1.046   0.042   0.042   0.000   0.000
0.03125   0.00575   313.775   686.719   2.085   1.046   0.042   0.042   0.000   0.000
0.03375   0.00575   316.765   686.719   2.085   1.046   0.042   0.042   0.000   0.000
0.03625   0.00575   319.513   686.719   2.085   1.046   0.042   0.042   0.000   0.000
0.03875   0.00575   322.021   686.719   2.085   1.046   0.042   0.042   0.000   0.000
0.04125   0.00575   324.314   686.719   2.085   1.046   0.042   0.042   0.000   0.000
0.04375   0.00575   326.435   686.719   2.085   1.046   0.042   0.042   0.000   0.000
0.04625   0.00575   328.650   686.719   2.085   1.046   0.042   0.042   0.000   0.000
0.04875   0.00575   335.638   686.719   2.085   1.046   0.042   0.000   0.000   6.065
0.00125   0.00525   294.664   686.719   1.046   1.046   0.000   0.042   0.000   0.000
0.00375   0.00525   294.774   686.719   1.046   1.046   0.042   0.042   0.000   0.000
0.00625   0.00525   294.999   686.719   1.046   1.046   0.042   0.042   0.000   0.000
0.00875   0.00525   295.346   686.719   1.046   1.046   0.042   0.042   0.000   0.000
0.01125   0.00525   295.827   686.719   1.046   1.046   0.042   0.042   0.000   0.000
0.01375   0.00525   296.459   686.719   1.046   1.046   0.042   0.042   0.000   0.000
0.01625   0.00525   297.260   686.719   1.046   1.046   0.042   0.042   0.000   0.000
0.01875   0.00525   298.254   686.719   1.046   1.046   0.042   0.042   0.000   0.000
0.02125   0.00525   299.467   686.719   1.046   1.046   0.042   0.042   0.000   0.000
0.02375   0.00525   300.929   686.719   1.046   1.046   0.042   0.042   0.000   0.000
0.02625   0.00525   302.665   686.719   1.046   1.046   0.042   0.042   0.000   0.000
0.02875   0.00525   304.684   686.719   1.046   1.046   0.042   0.042   0.000   0.000
0.03125   0.00525   306.913   686.719   1.046   1.046   0.042   0.042   0.000   0.000
0.03375   0.00525   309.086   686.719   1.046   1.046   0.042   0.042   0.000   0.000
0.03625   0.00525   311.129   686.719   1.046   1.046   0.042   0.042   0.000   0.000
0.03875   0.00525   313.050   686.719   1.046   1.046   0.042   0.042   0.000   0.000
0.04125   0.00525   314.875   686.719   1.046   1.046   0.042   0.042   0.000   0.000
0.04375   0.00525   316.662   686.719   1.046   1.046   0.042   0.042   0.000   0.000
0.04625   0.00525   318.985   686.719   1.046   1.046   0.042   0.042   0.000   0.000
0.04875   0.00525   330.783   686.719   1.046   1.046   0.042   0.000   0.000   6.071
0.00125   0.00475   293.946   686.719   1.046   1.046   0.000   0.042   0.000   0.000
0.00375   0.00475   294.015   686.719   1.046   1.046   0.042   0.042   0.000   0.000
0.00625   0.00475   294.158   686.719   1.046   1.046   0.042   0.042   0.000   0.000
0.00875   0.00475   294.379   686.719   1.046   1.046   0.042   0.042   0.000   0.000
0.01125   0.00475   294.688   686.719   1.046   1.046   0.042   0.042   0.000   0.000
0.01375   0.00475   295.095   686.719   1.046   1.046   0.042   0.042   0.000   0.000
0.01625   0.00475   295.616   686.719   1.046   1.046   0.042   0.042   0.000   0.000
0.01875   0.00475   296.267   686.719   1.046   1.046   0.042   0.042   0.000   0.000
0.02125   0.00475   297.068   686.719   1.046   1.046   0.042   0.042   0.000   0.000
0.02375   0.00475   298.040   686.719   1.046   1.046   0.042   0.042   0.000   0.000
0.02625   0.00475   299.203   686.719   1.046   1.046   0.042   0.042   0.000   0.000
0.02875   0.00475   300.566   686.719   1.046   1.046   0.042   0.042   0.000   0.000
0.03125   0.00475   302.088   686.719   1.046   1.046   0.042   0.042   0.000   0.000
0.03375   0.00475   303.621   686.719   1.046   1.046   0.042   0.042   0.000   0.000
0.03625   0.00475   305.124   686.719   1.046   1.046   0.042   0.042   0.000   0.000
0.03875   0.00475   306.606   686.719   1.046   1.046   0.042   0.042   0.000   0.000
0.04125   0.00475   308.088   686.719   1.046   1.046   0.042   0.042   0.000   0.000
0.04375   0.00475   309.624   686.719   1.046   1.046   0.042   0.042   0.000   0.000
0.04625   0.00475   311.782   686.719   1.046   1.046   0.042   0.042   0.000   0.000
0.04875   0.00475   323.505   686.719   1.046   1.046   0.042   0.000   0.000   6.080
0.00125   0.00425   293.621   686.719   1.046   2.085   0.000   0.042   0.000   0.000
0.00375   0.00425   293.666   686.719   1.046   2.085   0.042   0.042   0.000   0.000
0.00625   0.00425   293.759   686.719   1.046   2.085   0.042   0.042   0.000   0.000
0.00875   0.00425   293.903   686.719   1.046   2.085   0.042   0.042   0.000   0.000
0.01125   0.00425   294.103   686.719   1.046   2.085   0.042   0.042   0.000   0.000
0.01375   0.00425   294.366   686.719   1.046   2.085   0.042   0.042   0.000   0.000
0.01625   0.00425   294.700   686.719   1.046   2.085   0.042   0.042   0.000   0.000
0.01875   0.00425   295.116   686.719   1.046   2.085   0.042   0.042   0.000   0.000
0.02125   0.00425   295.626   686.719   1.046   2.085   0.042   0.042   0.000   0.000
0.02375   0.00425   296.240   686.719   1.046   2.085   0.042   0.042   0.000   0.000
0.02625   0.00425   296.970   686.719   1.046   2.085   0.042   0.042   0.000   0.000
0.02875   0.00425   297.825   686.719   1.046   2.085   0.042   0.042   0.000   0.000
0.03125   0.00425   298.795   686.719   1.046   2.085   0.042   0.042   0.000   0.000
0.03375   0.00425   299.834   686.719   1.046   2.085   0.042   0.042   0.000   0.000
0.03625   0.00425   300.934   686.719   1.046   2.085   0.042   0.042   0.000   0.000
0.03875   0.00425   302.101   686.719   1.046   2.085   0.042   0.042   0.000   0.000
0.04125   0.00425   303.347   686.719   1.046   2.085   0.042   0.042   0.000   0.000
0.04375   0.00425   304.698   686.719   1.046   2.085   0.042   0.042   0.000   0.000
0.04625   0.00425   306.409   686.719   1.046   2.085   0.042   0.042   0.000   0.000
0.04875   0.00425   313.161   686.719   1.046   2.085   0.042   0.000   0.000   6.091
0.00125   0.00375   293.594   1137.797   2.085   268.000   0.000   10.720   0.000   0.000
0.00375   0.00375   293.632   1137.797   2.085   268.000   10.720   10.720   0.000   0.000
0.00625   0.00375   293.711   1137.797   2.085   268.000   10.720   10.720   0.000   0.000
0.00875   0.00375   293.832   1137.797   2.085   268.000   10.720   10.720   0.000   0.000
0.01125   0.00375   293.999   1137.797   2.085   268.000   10.720   10.720   0.000   0.000
0.01375   0.00375   294.217   1137.797   2.085   268.000   10.720   10.720   0.000   0.000
0.01625   0.00375   294.490   1137.797   2.085   268.000   10.720   10.720   0.000   0.000
0.01875   0.00375   294.825   1137.797   2.085   268.000   10.720   10.720   0.000   0.000
0.02125   0.00375   295.228   1137.797   2.085   268.000   10.720   10.720   0.000   0.000
0.02375   0.00375   295.706   1137.797   2.085   268.000   10.720   10.720   0.000   0.000
0.02625   0.00375   296.266   1137.797   2.085   268.000   10.720   10.720   0.000   0.000
0.02875   0.00375   296.914   1137.797   2.085   268.000   10.720   10.720   0.000   0.000
0.03125   0.00375   297.656   1137.797   2.085   268.000   10.720   10.720   0.000   0.000
0.03375   0.00375   298.495   1137.797   2.085   268.000   10.720   10.720   0.000   0.000
0.03625   0.00375   299.436   1137.797   2.085   268.000   10.720   10.720   0.000   0.000
0.03875   0.00375   300.484   1137.797   2.085   268.000   10.720   10.720   0.000   0.000
0.04125   0.00375   301.647   1137.797   2.085   268.000   10.720   10.720   0.000   0.000
0.04375   0.00375   302.929   1137.797   2.085   268.000   10.720   10.720   0.000   0.000
0.04625   0.00375   304.344   1137.797   2.085   268.000   10.720   10.720   0.000   0.000
0.04875   0.00375   305.931   1137.797   2.085   268.000   10.720   0.000   0.000   16.262
0.00125   0.00325   293.593   1137.797   268.000   268.000   0.000   10.720   0.000   0.000
0.00375   0.00325   293.632   1137.797   268.000   268.000   10.720   10.720   0.000   0.000
0.00625   0.00325   293.711   1137.797   268.000   268.000   10.720   10.720   0.000   0.000
0.00875   0.00325   293.832   1137.797   268.000   268.000   10.720   10.720   0.000   0.000
0.01125   0.00325   293.999   1137.797   268.000   268.000   10.720   10.720   0.000   0.000
0.01375   0.00325   294.216   1137.797   268.000   268.000   10.720   10.720   0.000   0.000
0.01625   0.00325   294.488   1137.797   268.000   268.000   10.720   10.720   0.000   0.000
0.01875   0.00325   294.823   1137.797   268.000   268.000   10.720   10.720   0.000   0.000
0.02125   0.00325   295.225   1137.797   268.000   268.000   10.720   10.720   0.000   0.000
0.02375   0.00325   295.702   1137.797   268.000   268.000   10.720   10.720   0.000   0.000
0.02625   0.00325   296.261   1137.797   268.000   268.000   10.720   10.720   0.000   0.000
0.02875   0.00325   296.908   1137.797   268.000   268.000   10.720   10.720   0.000   0.000
0.03125   0.00325   297.648   1137.797   268.000   268.000   10.720   10.720   0.000   0.000
0.03375   0.00325   298.486   1137.797   268.000   268.000   10.720   10.720   0.000   0.000
0.03625   0.00325   299.426   1137.797   268.000   268.000   10.720   10.720   0.000   0.000
0.03875   0.00325   300.474   1137.797   268.000   268.000   10.720   10.720   0.000   0.000
0.04125   0.00325   301.635   1137.797   268.000   268.000   10.720   10.720   0.000   0.000
0.04375   0.00325   302.917   1137.797   268.000   268.000   10.720   10.720   0.000   0.000
0.04625   0.00325   304.327   1137.797   268.000   268.000   10.720   10.720   0.000   0.000
0.04875   0.00325   305.884   1137.797   268.000   268.000   10.720   0.000   0.000   16.262
0.00125   0.00275   293.593   1137.797   268.000   268.000   0.000   10.720   0.000   0.000
0.00375   0.00275   293.632   1137.797   268.000   268.000   10.720   10.720   0.000   0.000
0.00625   0.00275   293.711   1137.797   268.000   268.000   10.720   10.720   0.000   0.000
0.00875   0.00275   293.832   1137.797   268.000   268.000   10.720   10.720   0.000   0.000
0.01125   0.00275   293.998   1137.797   268.000   268.000   10.720   10.720   0.000   0.000
0.01375   0.00275   294.215   1137.797   268.000   268.000   10.720   10.720   0.000   0.000
0.01625   0.00275   294.487   1137.797   268.000   268.000   10.720   10.720   0.000   0.000
0.01875   0.00275   294.821   1137.797   268.000   268.000   10.720   10.720   0.000   0.000
0.02125   0.00275   295.223   1137.797   268.000   268.000   10.720   10.720   0.000   0.000
0.02375   0.00275   295.699   1137.797   268.000   268.000   10.720   10.720   0.000   0.000
0.02625   0.00275   296.257   1137.797   268.000   268.000   10.720   10.720   0.000   0.000
0.02875   0.00275   296.903   1137.797   268.000   268.000   10.720   10.720   0.000   0.000
0.03125   0.00275   297.642   1137.797   268.000   268.000   10.720   10.720   0.000   0.000
0.03375   0.00275   298.478   1137.797   268.000   268.000   10.720   10.720   0.000   0.000
0.03625   0.00275   299.417   1137.797   268.000   268.000   10.720   10.720   0.000   0.000
0.03875   0.00275   300.464   1137.797   268.000   268.000   10.720   10.720   0.000   0.000
0.04125   0.00275   301.625   1137.797   268.000   268.000   10.720   10.720   0.000   0.000
0.04375   0.00275   302.906   1137.797   268.000   268.000   10.720   10.720   0.000   0.000
0.04625   0.00275   304.312   1137.797   268.000   268.000   10.720   10.720   0.000   0.000
0.04875   0.00275   305.846   1137.797   268.000   268.000   10.720   0.000   0.000   16.262
0.00125   0.00225   293.593   1137.797   268.000   268.000   0.000   10.720   0.000   0.000
0.00375   0.00225   293.632   1137.797   268.000   268.000   10.720   10.720   0.000   0.000
0.00625   0.00225   293.710   1137.797   268.000   268.000   10.720   10.720   0.000   0.000
0.00875   0.00225   293.831   1137.797   268.000   268.000   10.720   10.720   0.000   0.000
0.01125   0.00225   293.998   1137.797   268.000   268.000   10.720   10.720   0.000   0.000
0.01375   0.00225   294.214   1137.797   268.000   268.000   10.720   10.720   0.000   0.000
0.01625   0.00225   294.486   1137.797   268.000   268.000   10.720   10.720   0.000   0.000
0.01875   0.00225   294.819   1137.797   268.000   268.000   10.720   10.720   0.000   0.000
0.02125   0.00225   295.221   1137.797   268.000   268.000   10.720   10.720   0.000   0.000
0.02375   0.00225   295.697   1137.797   268.000   268.000   10.720   10.720   0.000   0.000
0.02625   0.00225   296.254   1137.797   268.000   268.000   10.720   10.720   0.000   0.000
0.02875   0.00225   296.899   1137.797   268.000   268.000   10.720   10.720   0.000   0.000
0.03125   0.00225   297.636   1137.797   268.000   268.000   10.720   10.720   0.000   0.000
0.03375   0.00225   298.471   1137.797   268.000   268.000   10.720   10.720   0.000   0.000
0.03625   0.00225   299.410   1137.797   268.000   268.000   10.720   10.720   0.000   0.000
0.03875   0.00225   300.456   1137.797   268.000   268.000   10.720   10.720   0.000   0.000
0.04125   0.00225   301.617   1137.797   268.000   268.000   10.720   10.720   0.000   0.000
0.04375   0.00225   302.896   1137.797   268.000   268.000   10.720   10.720   0.000   0.000
0.04625   0.00225   304.299   1137.797   268.000   268.000   10.720   10.720   0.000   0.000
0.04875   0.00225   305.815   1137.797   268.000   268.000   10.720   0.000   0.000   16.262
0.00125   0.00175   293.593   1137.797   268.000   268.000   0.000   10.720   0.000   0.000
0.00375   0.00175   293.632   1137.797   268.000   268.000   10.720   10.720   0.000   0.000
0.00625   0.00175   293.710   1137.797   268.000   268.000   10.720   10.720   0.000   0.000
0.00875   0.00175   293.831   1137.797   268.000   268.000   10.720   10.720   0.000   0.000
0.01125   0.00175   293.997   1137.797   268.000   268.000   10.720   10.720   0.000   0.000
0.01375   0.00175   294.214   1137.797   268.000   268.000   10.720   10.720   0.000   0.000
0.01625   0.00175   294.485   1137.797   268.000   268.000   10.720   10.720   0.000   0.000
0.01875   0.00175   294.818   1137.797   268.000   268.000   10.720   10.720   0.000   0.000
0.02125   0.00175   295.219   1137.797   268.000   268.000   10.720   10.720   0.000   0.000