VARIABLES = X, Y, T, ap,an,as,aw,ae,sp,su
ZONE I=20,J=20, F=POINT,t="17.640"
0.00125   0.00975   295.437   1137.797   0.000   268.000   0.000   10.720   0.000   -0.002
0.00375   0.00975   295.607   1137.797   0.000   268.000   10.720   10.720   0.000   -0.002
0.00625   0.00975   295.954   1137.797   0.000   268.000   10.720   10.720   0.000   -0.002
0.00875   0.00975   296.489   1137.797   0.000   268.000   10.720   10.720   0.000   -0.003
0.01125   0.00975   297.230   1137.797   0.000   268.000   10.720   10.720   0.000   -0.003
0.01375   0.00975   298.201   1137.797   0.000   268.000   10.720   10.720   0.000   -0.004
0.01625   0.00975   299.431   1137.797   0.000   268.000   10.720   10.720   0.000   -0.005
0.01875   0.00975   300.954   1137.797   0.000   268.000   10.720   10.720   0.000   -0.006
0.02125   0.00975   302.807   1137.797   0.000   268.000   10.720   10.720   0.000   -0.007
0.02375   0.00975   305.036   1137.797   0.000   268.000   10.720   10.720   0.000   -0.009
0.02625   0.00975   307.694   1137.797   0.000   268.000   10.720   10.720   0.000   -0.011
0.02875   0.00975   310.876   1137.797   0.000   268.000   10.720   10.720   0.000   -0.013
0.03125   0.00975   315.011   1137.797   0.000   268.000   10.720   10.720   0.000   81.171
0.03375   0.00975   318.332   1137.797   0.000   268.000   10.720   10.720   0.000   81.120
0.03625   0.00975   321.265   1137.797   0.000   268.000   10.720   10.720   0.000   81.075
0.03875   0.00975   323.903   1137.797   0.000   268.000   10.720   10.720   0.000   81.033
0.04125   0.00975   326.291   1137.797   0.000   268.000   10.720   10.720   0.000   80.994
0.04375   0.00975   328.462   1137.797   0.000   268.000   10.720   10.720   0.000   80.957
0.04625   0.00975   330.436   1137.797   0.000   268.000   10.720   10.720   0.000   80.924
0.04875   0.00975   332.206   1137.797   0.000   268.000   10.720   0.000   0.000   97.078
0.00125   0.00925   295.436   1137.797   268.000   268.000   0.000   10.720   0.000   0.000
0.00375   0.00925   295.606   1137.797   268.000   268.000   10.720   10.720   0.000   0.000
0.00625   0.00925   295.953   1137.797   268.000   268.000   10.720   10.720   0.000   0.000
0.00875   0.00925   296.488   1137.797   268.000   268.000   10.720   10.720   0.000   0.000
0.01125   0.00925   297.229   1137.797   268.000   268.000   10.720   10.720   0.000   0.000
0.01375   0.00925   298.200   1137.797   268.000   268.000   10.720   10.720   0.000   0.000
0.01625   0.00925   299.430   1137.797   268.000   268.000   10.720   10.720   0.000   0.000
0.01875   0.00925   300.952   1137.797   268.000   268.000   10.720   10.720   0.000   0.000
0.02125   0.00925   302.805   1137.797   268.000   268.000   10.720   10.720   0.000   0.000
0.02375   0.00925   305.033   1137.797   268.000   268.000   10.720   10.720   0.000   0.000
0.02625   0.00925   307.689   1137.797   268.000   268.000   10.720   10.720   0.000   0.000
0.02875   0.00925   310.855   1137.797   268.000   268.000   10.720   10.720   0.000   0.000
0.03125   0.00925   314.759   1137.797   268.000   268.000   10.720   10.720   0.000   0.000
0.03375   0.00925   318.064   1137.797   268.000   268.000   10.720   10.720   0.000   0.000
0.03625   0.00925   320.996   1137.797   268.000   268.000   10.720   10.720   0.000   0.000
0.03875   0.00925   323.633   1137.797   268.000   268.000   10.720   10.720   0.000   0.000
0.04125   0.00925   326.021   1137.797   268.000   268.000   10.720   10.720   0.000   0.000
0.04375   0.00925   328.192   1137.797   268.000   268.000   10.720   10.720   0.000   0.000
0.04625   0.00925   330.167   1137.797   268.000   268.000   10.720   10.720   0.000   0.000
0.04875   0.00925   331.939   1137.797   268.000   268.000   10.720   0.000   0.000   16.185
0.00125   0.00875   295.434   1137.797   268.000   268.000   0.000   10.720   0.000   0.000
0.00375   0.00875   295.605   1137.797   268.000   268.000   10.720   10.720   0.000   0.000
0.00625   0.00875   295.951   1137.797   268.000   268.000   10.720   10.720   0.000   0.000
0.00875   0.00875   296.486   1137.797   268.000   268.000   10.720   10.720   0.000   0.000
0.01125   0.00875   297.227   1137.797   268.000   268.000   10.720   10.720   0.000   0.000
0.01375   0.00875   298.197   1137.797   268.000   268.000   10.720   10.720   0.000   0.000
0.01625   0.00875   299.426   1137.797   268.000   268.000   10.720   10.720   0.000   0.000
0.01875   0.00875   300.948   1137.797   268.000   268.000   10.720   10.720   0.000   0.000
0.02125   0.00875   302.800   1137.797   268.000   268.000   10.720   10.720   0.000   0.000
0.02375   0.00875   305.027   1137.797   268.000   268.000   10.720   10.720   0.000   0.000
0.02625   0.00875   307.679   1137.797   268.000   268.000   10.720   10.720   0.000   0.000
0.02875   0.00875   310.821   1137.797   268.000   268.000   10.720   10.720   0.000   0.000
0.03125   0.00875   314.550   1137.797   268.000   268.000   10.720   10.720   0.000   0.000
0.03375   0.00875   317.832   1137.797   268.000   268.000   10.720   10.720   0.000   0.000
0.03625   0.00875   320.759   1137.797   268.000   268.000   10.720   10.720   0.000   0.000
0.03875   0.00875   323.395   1137.797   268.000   268.000   10.720   10.720   0.000   0.000
0.04125   0.00875   325.783   1137.797   268.000   268.000   10.720   10.720   0.000   0.000
0.04375   0.00875   327.954   1137.797   268.000   268.000   10.720   10.720   0.000   0.000
0.04625   0.00875   329.930   1137.797   268.000   268.000   10.720   10.720   0.000   0.000
0.04875   0.00875   331.708   1137.797   268.000   268.000   10.720   0.000   0.000   16.186
0.00125   0.00825   295.432   1137.797   268.000   268.000   0.000   10.720   0.000   0.000
0.00375   0.00825   295.602   1137.797   268.000   268.000   10.720   10.720   0.000   0.000
0.00625   0.00825   295.948   1137.797   268.000   268.000   10.720   10.720   0.000   0.000
0.00875   0.00825   296.483   1137.797   268.000   268.000   10.720   10.720   0.000   0.000
0.01125   0.00825   297.223   1137.797   268.000   268.000   10.720   10.720   0.000   0.000
0.01375   0.00825   298.193   1137.797   268.000   268.000   10.720   10.720   0.000   0.000
0.01625   0.00825   299.421   1137.797   268.000   268.000   10.720   10.720   0.000   0.000
0.01875   0.00825   300.942   1137.797   268.000   268.000   10.720   10.720   0.000   0.000
0.02125   0.00825   302.793   1137.797   268.000   268.000   10.720   10.720   0.000   0.000
0.02375   0.00825   305.018   1137.797   268.000   268.000   10.720   10.720   0.000   0.000
0.02625   0.00825   307.664   1137.797   268.000   268.000   10.720   10.720   0.000   0.000
0.02875   0.00825   310.782   1137.797   268.000   268.000   10.720   10.720   0.000   0.000
0.03125   0.00825   314.377   1137.797   268.000   268.000   10.720   10.720   0.000   0.000
0.03375   0.00825   317.633   1137.797   268.000   268.000   10.720   10.720   0.000   0.000
0.03625   0.00825   320.556   1137.797   268.000   268.000   10.720   10.720   0.000   0.000
0.03875   0.00825   323.190   1137.797   268.000   268.000   10.720   10.720   0.000   0.000
0.04125   0.00825   325.576   1137.797   268.000   268.000   10.720   10.720   0.000   0.000
0.04375   0.00825   327.747   1137.797   268.000   268.000   10.720   10.720   0.000   0.000
0.04625   0.00825   329.726   1137.797   268.000   268.000   10.720   10.720   0.000   0.000
0.04875   0.00825   331.512   1137.797   268.000   268.000   10.720   0.000   0.000   16.187
0.00125   0.00775   295.429   1137.797   268.000   268.000   0.000   10.720   0.000   0.000
0.00375   0.00775   295.599   1137.797   268.000   268.000   10.720   10.720   0.000   0.000
0.00625   0.00775   295.945   1137.797   268.000   268.000   10.720   10.720   0.000   0.000
0.00875   0.00775   296.479   1137.797   268.000   268.000   10.720   10.720   0.000   0.000
0.01125   0.00775   297.219   1137.797   268.000   268.000   10.720   10.720   0.000   0.000
0.01375   0.00775   298.188   1137.797   268.000   268.000   10.720   10.720   0.000   0.000
0.01625   0.00775   299.415   1137.797   268.000   268.000   10.720   10.720   0.000   0.000
0.01875   0.00775   300.934   1137.797   268.000   268.000   10.720   10.720   0.000   0.000
0.02125   0.00775   302.784   1137.797   268.000   268.000   10.720   10.720   0.000   0.000
0.02375   0.00775   305.007   1137.797   268.000   268.000   10.720   10.720   0.000   0.000
0.02625   0.00775   307.646   1137.797   268.000   268.000   10.720   10.720   0.000   0.000
0.02875   0.00775   310.740   1137.797   268.000   268.000   10.720   10.720   0.000   0.000
0.03125   0.00775   314.236   1137.797   268.000   268.000   10.720   10.720   0.000   0.000
0.03375   0.00775   317.468   1137.797   268.000   268.000   10.720   10.720   0.000   0.000
0.03625   0.00775   320.385   1137.797   268.000   268.000   10.720   10.720   0.000   0.000
0.03875   0.00775   323.017   1137.797   268.000   268.000   10.720   10.720   0.000   0.000
0.04125   0.00775   325.402   1137.797   268.000   268.000   10.720   10.720   0.000   0.000
0.04375   0.00775   327.573   1137.797   268.000   268.000   10.720   10.720   0.000   0.000
0.04625   0.00775   329.554   1137.797   268.000   268.000   10.720   10.720   0.000   0.000
0.04875   0.00775   331.353   1137.797   268.000   268.000   10.720   0.000   0.000   16.187
0.00125   0.00725   295.425   1137.797   268.000   268.000   0.000   10.720   0.000   0.000
0.00375   0.00725   295.595   1137.797   268.000   268.000   10.720   10.720   0.000   0.000
0.00625   0.00725   295.941   1137.797   268.000   268.000   10.720   10.720   0.000   0.000
0.00875   0.00725   296.474   1137.797   268.000   268.000   10.720   10.720   0.000   0.000
0.01125   0.00725   297.213   1137.797   268.000   268.000   10.720   10.720   0.000   0.000
0.01375   0.00725   298.181   1137.797   268.000   268.000   10.720   10.720   0.000   0.000
0.01625   0.00725   299.407   1137.797   268.000   268.000   10.720   10.720   0.000   0.000
0.01875   0.00725   300.925   1137.797   268.000   268.000   10.720   10.720   0.000   0.000
0.02125   0.00725   302.773   1137.797   268.000   268.000   10.720   10.720   0.000   0.000
0.02375   0.00725   304.992   1137.797   268.000   268.000   10.720   10.720   0.000   0.000
0.02625   0.00725   307.626   1137.797   268.000   268.000   10.720   10.720   0.000   0.000
0.02875   0.00725   310.698   1137.797   268.000   268.000   10.720   10.720   0.000   0.000
0.03125   0.00725   314.124   1137.797   268.000   268.000   10.720   10.720   0.000   0.000
0.03375   0.00725   317.336   1137.797   268.000   268.000   10.720   10.720   0.000   0.000
0.03625   0.00725   320.246   1137.797   268.000   268.000   10.720   10.720   0.000   0.000
0.03875   0.00725   322.876   1137.797   268.000   268.000   10.720   10.720   0.000   0.000
0.04125   0.00725   325.260   1137.797   268.000   268.000   10.720   10.720   0.000   0.000
0.04375   0.00725   327.430   1137.797   268.000   268.000   10.720   10.720   0.000   0.000
0.04625   0.00725   329.414   1137.797   268.000   268.000   10.720   10.720   0.000   0.000
0.04875   0.00725   331.229   1137.797   268.000   268.000   10.720   0.000   0.000   16.188
0.00125   0.00675   295.421   1137.797   268.000   268.000   0.000   10.720   0.000   0.000
0.00375   0.00675   295.590   1137.797   268.000   268.000   10.720   10.720   0.000   0.000
0.00625   0.00675   295.935   1137.797   268.000   268.000   10.720   10.720   0.000   0.000
0.00875   0.00675   296.468   1137.797   268.000   268.000   10.720   10.720   0.000   0.000
0.01125   0.00675   297.206   1137.797   268.000   268.000   10.720   10.720   0.000   0.000
0.01375   0.00675   298.173   1137.797   268.000   268.000   10.720   10.720   0.000   0.000
0.01625   0.00675   299.397   1137.797   268.000   268.000   10.720   10.720   0.000   0.000
0.01875   0.00675   300.913   1137.797   268.000   268.000   10.720   10.720   0.000   0.000
0.02125   0.00675   302.759   1137.797   268.000   268.000   10.720   10.720   0.000   0.000
0.02375   0.00675   304.976   1137.797   268.000   268.000   10.720   10.720   0.000   0.000
0.02625   0.00675   307.604   1137.797   268.000   268.000   10.720   10.720   0.000   0.000
0.02875   0.00675   310.660   1137.797   268.000   268.000   10.720   10.720   0.000   0.000
0.03125   0.00675   314.039   1137.797   268.000   268.000   10.720   10.720   0.000   0.000
0.03375   0.00675   317.235   1137.797   268.000   268.000   10.720   10.720   0.000   0.000
0.03625   0.00675   320.140   1137.797   268.000   268.000   10.720   10.720   0.000   0.000
0.03875   0.00675   322.767   1137.797   268.000   268.000   10.720   10.720   0.000   0.000
0.04125   0.00675   325.149   1137.797   268.000   268.000   10.720   10.720   0.000   0.000
0.04375   0.00675   327.318   1137.797   268.000   268.000   10.720   10.720   0.000   0.000
0.04625   0.00675   329.306   1137.797   268.000   268.000   10.720   10.720   0.000   0.000
0.04875   0.00675   331.143   1137.797   268.000   268.000   10.720   0.000   0.000   16.188
0.00125   0.00625   295.416   1137.797   268.000   2.085   0.000   10.720   0.000   0.000
0.00375   0.00625   295.585   1137.797   268.000   2.085   10.720   10.720   0.000   0.000
0.00625   0.00625   295.929   1137.797   268.000   2.085   10.720   10.720   0.000   0.000
0.00875   0.00625   296.461   1137.797   268.000   2.085   10.720   10.720   0.000   0.000
0.01125   0.00625   297.198   1137.797   268.000   2.085   10.720   10.720   0.000   0.000
0.01375   0.00625   298.163   1137.797   268.000   2.085   10.720   10.720   0.000   0.000
0.01625   0.00625   299.386   1137.797   268.000   2.085   10.720   10.720   0.000   0.000
0.01875   0.00625   300.900   1137.797   268.000   2.085   10.720   10.720   0.000   0.000
0.02125   0.00625   302.743   1137.797   268.000   2.085   10.720   10.720   0.000   0.000
0.02375   0.00625   304.956   1137.797   268.000   2.085   10.720   10.720   0.000   0.000
0.02625   0.00625   307.580   1137.797   268.000   2.085   10.720   10.720   0.000   0.000
0.02875   0.00625   310.626   1137.797   268.000   2.085   10.720   10.720   0.000   0.000
0.03125   0.00625   313.980   1137.797   268.000   2.085   10.720   10.720   0.000   0.000
0.03375   0.00625   317.166   1137.797   268.000   2.085   10.720   10.720   0.000   0.000
0.03625   0.00625   320.066   1137.797   268.000   2.085   10.720   10.720   0.000   0.000
0.03875   0.00625   322.690   1137.797   268.000   2.085   10.720   10.720   0.000   0.000
0.04125   0.00625   325.070   1137.797   268.000   2.085   10.720   10.720   0.000   0.000
0.04375   0.00625   327.238   1137.797   268.000   2.085   10.720   10.720   0.000   0.000
0.04625   0.00625   329.228   1137.797   268.000   2.085   10.720   10.720   0.000   0.000
0.04875   0.00625   331.095   1137.797   268.000   2.085   10.720   0.000   0.000   16.188
0.00125   0.00575   294.649   686.719   2.085   1.046   0.000   0.042   0.000   0.000
0.00375   0.00575   294.777   686.719   2.085   1.046   0.042   0.042   0.000   0.000
0.00625   0.00575   295.039   686.719   2.085   1.046   0.042   0.042   0.000   0.000
0.00875   0.00575   295.445   686.719   2.085   1.046   0.042   0.042   0.000   0.000
0.01125   0.00575   296.013   686.719   2.085   1.046   0.042   0.042   0.000   0.000
0.01375   0.00575   296.762   686.719   2.085   1.046   0.042   0.042   0.000   0.000
0.01625   0.00575   297.721   686.719   2.085   1.046   0.042   0.042   0.000   0.000
0.01875   0.00575   298.920   686.719   2.085   1.046   0.042   0.042   0.000   0.000
0.02125   0.00575   300.395   686.719   2.085   1.046   0.042   0.042   0.000   0.000
0.02375   0.00575   302.187   686.719   2.085   1.046   0.042   0.042   0.000   0.000
0.02625   0.00575   304.332   686.719   2.085   1.046   0.042   0.042   0.000   0.000
0.02875   0.00575   306.845   686.719   2.085   1.046   0.042   0.042   0.000   0.000
0.03125   0.00575   309.628   686.719   2.085   1.046   0.042   0.042   0.000   0.000
0.03375   0.00575   312.289   686.719   2.085   1.046   0.042   0.042   0.000   0.000
0.03625   0.00575   314.729   686.719   2.085   1.046   0.042   0.042   0.000   0.000
0.03875   0.00575   316.960   686.719   2.085   1.046   0.042   0.042   0.000   0.000
0.04125   0.00575   319.017   686.719   2.085   1.046   0.042   0.042   0.000   0.000
0.04375   0.00575   320.948   686.719   2.085   1.046   0.042   0.042   0.000   0.000
0.04625   0.00575   323.018   686.719   2.085   1.046   0.042   0.042   0.000   0.000
0.04875   0.00575   329.904   686.719   2.085   1.046   0.042   0.000   0.000   6.072
0.00125   0.00525   293.827   686.719   1.046   1.046   0.000   0.042   0.000   0.000
0.00375   0.00525   293.902   686.719   1.046   1.046   0.042   0.042   0.000   0.000
0.00625   0.00525   294.056   686.719   1.046   1.046   0.042   0.042   0.000   0.000
0.00875   0.00525   294.297   686.719   1.046   1.046   0.042   0.042   0.000   0.000
0.01125   0.00525   294.638   686.719   1.046   1.046   0.042   0.042   0.000   0.000
0.01375   0.00525   295.095   686.719   1.046   1.046   0.042   0.042   0.000   0.000
0.01625   0.00525   295.688   686.719   1.046   1.046   0.042   0.042   0.000   0.000
0.01875   0.00525   296.444   686.719   1.046   1.046   0.042   0.042   0.000   0.000
0.02125   0.00525   297.390   686.719   1.046   1.046   0.042   0.042   0.000   0.000
0.02375   0.00525   298.560   686.719   1.046   1.046   0.042   0.042   0.000   0.000
0.02625   0.00525   299.985   686.719   1.046   1.046   0.042   0.042   0.000   0.000
0.02875   0.00525   301.680   686.719   1.046   1.046   0.042   0.042   0.000   0.000
0.03125   0.00525   303.579   686.719   1.046   1.046   0.042   0.042   0.000   0.000
0.03375   0.00525   305.431   686.719   1.046   1.046   0.042   0.042   0.000   0.000
0.03625   0.00525   307.170   686.719   1.046   1.046   0.042   0.042   0.000   0.000
0.03875   0.00525   308.813   686.719   1.046   1.046   0.042   0.042   0.000   0.000
0.04125   0.00525   310.394   686.719   1.046   1.046   0.042   0.042   0.000   0.000
0.04375   0.00525   311.978   686.719   1.046   1.046   0.042   0.042   0.000   0.000
0.04625   0.00525   314.129   686.719   1.046   1.046   0.042   0.042   0.000   0.000
0.04875   0.00525   325.766   686.719   1.046   1.046   0.042   0.000   0.000   6.077
0.00125   0.00475   293.423   686.719   1.046   1.046   0.000   0.042   0.000   0.000
0.00375   0.00475   293.467   686.719   1.046   1.046   0.042   0.042   0.000   0.000
0.00625   0.00475   293.557   686.719   1.046   1.046   0.042   0.042   0.000   0.000
0.00875   0.00475   293.699   686.719   1.046   1.046   0.042   0.042   0.000   0.000
0.01125   0.00475   293.902   686.719   1.046   1.046   0.042   0.042   0.000   0.000
0.01375   0.00475   294.176   686.719   1.046   1.046   0.042   0.042   0.000   0.000
0.01625   0.00475   294.538   686.719   1.046   1.046   0.042   0.042   0.000   0.000
0.01875   0.00475   295.004   686.719   1.046   1.046   0.042   0.042   0.000   0.000
0.02125   0.00475   295.597   686.719   1.046   1.046   0.042   0.042   0.000   0.000
0.02375   0.00475   296.338   686.719   1.046   1.046   0.042   0.042   0.000   0.000
0.02625   0.00475   297.252   686.719   1.046   1.046   0.042   0.042   0.000   0.000
0.02875   0.00475   298.353   686.719   1.046   1.046   0.042   0.042   0.000   0.000
0.03125   0.00475   299.607   686.719   1.046   1.046   0.042   0.042   0.000   0.000
0.03375   0.00475   300.876   686.719   1.046   1.046   0.042   0.042   0.000   0.000
0.03625   0.00475   302.128   686.719   1.046   1.046   0.042   0.042   0.000   0.000
0.03875   0.00475   303.378   686.719   1.046   1.046   0.042   0.042   0.000   0.000
0.04125   0.00475   304.656   686.719   1.046   1.046   0.042   0.042   0.000   0.000
0.04375   0.00475   306.018   686.719   1.046   1.046   0.042   0.042   0.000   0.000
0.04625   0.00475   308.024   686.719   1.046   1.046   0.042   0.042   0.000   0.000
0.04875   0.00475   319.596   686.719   1.046   1.046   0.042   0.000   0.000   6.084
0.00125   0.00425   293.267   686.719   1.046   2.085   0.000   0.042   0.000   0.000
0.00375   0.00425   293.295   686.719   1.046   2.085   0.042   0.042   0.000   0.000
0.00625   0.00425   293.352   686.719   1.046   2.085   0.042   0.042   0.000   0.000
0.00875   0.00425   293.443   686.719   1.046   2.085   0.042   0.042   0.000   0.000
0.01125   0.00425   293.572   686.719   1.046   2.085   0.042   0.042   0.000   0.000
0.01375   0.00425   293.747   686.719   1.046   2.085   0.042   0.042   0.000   0.000
0.01625   0.00425   293.975   686.719   1.046   2.085   0.042   0.042   0.000   0.000
0.01875   0.00425   294.270   686.719   1.046   2.085   0.042   0.042   0.000   0.000
0.02125   0.00425   294.641   686.719   1.046   2.085   0.042   0.042   0.000   0.000
0.02375   0.00425   295.105   686.719   1.046   2.085   0.042   0.042   0.000   0.000
0.02625   0.00425   295.674   686.719   1.046   2.085   0.042   0.042   0.000   0.000
0.02875   0.00425   296.359   686.719   1.046   2.085   0.042   0.042   0.000   0.000
0.03125   0.00425   297.157   686.719   1.046   2.085   0.042   0.042   0.000   0.000
0.03375   0.00425   298.027   686.719   1.046   2.085   0.042   0.042   0.000   0.000
0.03625   0.00425   298.966   686.719   1.046   2.085   0.042   0.042   0.000   0.000
0.03875   0.00425   299.986   686.719   1.046   2.085   0.042   0.042   0.000   0.000
0.04125   0.00425   301.104   686.719   1.046   2.085   0.042   0.042   0.000   0.000
0.04375   0.00425   302.348   686.719   1.046   2.085   0.042   0.042   0.000   0.000
0.04625   0.00425   303.972   686.719   1.046   2.085   0.042   0.042   0.000   0.000
0.04875   0.00425   310.647   686.719   1.046   2.085   0.042   0.000   0.000   6.094
0.00125   0.00375   293.272   1137.797   2.085   268.000   0.000   10.720   0.000   0.000
0.00375   0.00375   293.297   1137.797   2.085   268.000   10.720   10.720   0.000   0.000
0.00625   0.00375   293.348   1137.797   2.085   268.000   10.720   10.720   0.000   0.000
0.00875   0.00375   293.429   1137.797   2.085   268.000   10.720   10.720   0.000   0.000
0.01125   0.00375   293.542   1137.797   2.085   268.000   10.720   10.720   0.000   0.000
0.01375   0.00375   293.694   1137.797   2.085   268.000   10.720   10.720   0.000   0.000
0.01625   0.00375   293.889   1137.797   2.085   268.000   10.720   10.720   0.000   0.000
0.01875   0.00375   294.135   1137.797   2.085   268.000   10.720   10.720   0.000   0.000
0.02125   0.00375   294.440   1137.797   2.085   268.000   10.720   10.720   0.000   0.000
0.02375   0.00375   294.812   1137.797   2.085   268.000   10.720   10.720   0.000   0.000
0.02625   0.00375   295.261   1137.797   2.085   268.000   10.720   10.720   0.000   0.000
0.02875   0.00375   295.796   1137.797   2.085   268.000   10.720   10.720   0.000   0.000
0.03125   0.00375   296.423   1137.797   2.085   268.000   10.720   10.720   0.000   0.000
0.03375   0.00375   297.152   1137.797   2.085   268.000   10.720   10.720   0.000   0.000
0.03625   0.00375   297.989   1137.797   2.085   268.000   10.720   10.720   0.000   0.000
0.03875   0.00375   298.945   1137.797   2.085   268.000   10.720   10.720   0.000   0.000
0.04125   0.00375   300.027   1137.797   2.085   268.000   10.720   10.720   0.000   0.000
0.04375   0.00375   301.246   1137.797   2.085   268.000   10.720   10.720   0.000   0.000
0.04625   0.00375   302.616   1137.797   2.085   268.000   10.720   10.720   0.000   0.000
0.04875   0.00375   304.180   1137.797   2.085   268.000   10.720   0.000   0.000   16.267
0.00125   0.00325   293.272   1137.797   268.000   268.000   0.000   10.720   0.000   0.000
0.00375   0.00325   293.297   1137.797   268.000   268.000   10.720   10.720   0.000   0.000
0.00625   0.00325   293.348   1137.797   268.000   268.000   10.720   10.720   0.000   0.000
0.00875   0.00325   293.429   1137.797   268.000   268.000   10.720   10.720   0.000   0.000
0.01125   0.00325   293.542   1137.797   268.000   268.000   10.720   10.720   0.000   0.000
0.01375   0.00325   293.693   1137.797   268.000   268.000   10.720   10.720   0.000   0.000
0.01625   0.00325   293.888   1137.797   268.000   268.000   10.720   10.720   0.000   0.000
0.01875   0.00325   294.134   1137.797   268.000   268.000   10.720   10.720   0.000   0.000
0.02125   0.00325   294.438   1137.797   268.000   268.000   10.720   10.720   0.000   0.000
0.02375   0.00325   294.810   1137.797   268.000   268.000   10.720   10.720   0.000   0.000
0.02625   0.00325   295.259   1137.797   268.000   268.000   10.720   10.720   0.000   0.000
0.02875   0.00325   295.792   1137.797   268.000   268.000   10.720   10.720   0.000   0.000
0.03125   0.00325   296.418   1137.797   268.000   268.000   10.720   10.720   0.000   0.000
0.03375   0.00325   297.146   1137.797   268.000   268.000   10.720   10.720   0.000   0.000
0.03625   0.00325   297.983   1137.797   268.000   268.000   10.720   10.720   0.000   0.000
0.03875   0.00325   298.938   1137.797   268.000   268.000   10.720   10.720   0.000   0.000
0.04125   0.00325   300.020   1137.797   268.000   268.000   10.720   10.720   0.000   0.000
0.04375   0.00325   301.238   1137.797   268.000   268.000   10.720   10.720   0.000   0.000
0.04625   0.00325   302.605   1137.797   268.000   268.000   10.720   10.720   0.000   0.000
0.04875   0.00325   304.138   1137.797   268.000   268.000   10.720   0.000   0.000   16.267
0.00125   0.00275   293.272   1137.797   268.000   268.000   0.000   10.720   0.000   0.000
0.00375   0.00275   293.297   1137.797   268.000   268.000   10.720   10.720   0.000   0.000
0.00625   0.00275   293.348   1137.797   268.000   268.000   10.720   10.720   0.000   0.000
0.00875   0.00275   293.429   1137.797   268.000   268.000   10.720   10.720   0.000   0.000
0.01125   0.00275   293.542   1137.797   268.000   268.000   10.720   10.720   0.000   0.000
0.01375   0.00275   293.693   1137.797   268.000   268.000   10.720   10.720   0.000   0.000
0.01625   0.00275   293.888   1137.797   268.000   268.000   10.720   10.720   0.000   0.000
0.01875   0.00275   294.133   1137.797   268.000   268.000   10.720   10.720   0.000   0.000
0.02125   0.00275   294.437   1137.797   268.000   268.000   10.720   10.720   0.000   0.000
0.02375   0.00275   294.809   1137.797   268.000   268.000   10.720   10.720   0.000   0.000
0.02625   0.00275   295.256   1137.797   268.000   268.000   10.720   10.720   0.000   0.000
0.02875   0.00275   295.789   1137.797   268.000   268.000   10.720   10.720   0.000   0.000
0.03125   0.00275   296.414   1137.797   268.000   268.000   10.720   10.720   0.000   0.000
0.03375   0.00275   297.141   1137.797   268.000   268.000   10.720   10.720   0.000   0.000
0.03625   0.00275   297.977   1137.797   268.000   268.000   10.720   10.720   0.000   0.000
0.03875   0.00275   298.932   1137.797   268.000   268.000   10.720   10.720   0.000   0.000
0.04125   0.00275   300.013   1137.797   268.000   268.000   10.720   10.720   0.000   0.000
0.04375   0.00275   301.231   1137.797   268.000   268.000   10.720   10.720   0.000   0.000
0.04625   0.00275   302.594   1137.797   268.000   268.000   10.720   10.720   0.000   0.000
0.04875   0.00275   304.105   1137.797   268.000   268.000   10.720   0.000   0.000   16.267
0.00125   0.00225   293.272   1137.797   268.000   268.000   0.000   10.720   0.000   0.000
0.00375   0.00225   293.297   1137.797   268.000   268.000   10.720   10.720   0.000   0.000
0.00625   0.00225   293.348   1137.797   268.000   268.000   10.720   10.720   0.000   0.000
0.00875   0.00225   293.429   1137.797   268.000   268.000   10.720   10.720   0.000   0.000
0.01125   0.00225   293.542   1137.797   268.000   268.000   10.720   10.720   0.000   0.000
0.01375   0.00225   293.693   1137.797   268.000   268.000   10.720   10.720   0.000   0.000
0.01625   0.00225   293.887   1137.797   268.000   268.000   10.720   10.720   0.000   0.000
0.01875   0.00225   294.132   1137.797   268.000   268.000   10.720   10.720   0.000   0.000
0.02125   0.00225   294.436   1137.797   268.000   268.000   10.720   10.720   0.000   0.000
0.02375   0.00225   294.807   1137.797   268.000   268.000   10.720   10.720   0.000   0.000
0.02625   0.00225   295.254   1137.797   268.000   268.000   10.720   10.720   0.000   0.000
0.02875   0.00225   295.786   1137.797   268.000   268.000   10.720   10.720   0.000   0.000
0.03125   0.00225   296.411   1137.797   268.000   268.000   10.720   10.720   0.000   0.000
0.03375   0.00225   297.137   1137.797   268.000   268.000   10.720   10.720   0.000   0.000
0.03625   0.00225   297.972   1137.797   268.000   268.000   10.720   10.720   0.000   0.000
0.03875   0.00225   298.927   1137.797   268.000   268.000   10.720   10.720   0.000   0.000
0.04125   0.00225   300.008   1137.797   268.000   268.000   10.720   10.720   0.000   0.000
0.04375   0.00225   301.225   1137.797   268.000   268.000   10.720   10.720   0.000   0.000
0.04625   0.00225   302.584   1137.797   268.000   268.000   10.720   10.720   0.000   0.000
0.04875   0.00225   304.078   1137.797   268.000   268.000   10.720   0.000   0.000   16.267
0.00125   0.00175   293.272   1137.797   268.000   268.000   0.000   10.720   0.000   0.000
0.00375   0.00175   293.297   1137.797   268.000   268.000   10.720   10.720   0.000   0.000
0.00625   0.00175   293.348   1137.797   268.000   268.000   10.720   10.720   0.000   0.000
0.00875   0.00175   293.429   1137.797   268.000   268.000   10.720   10.720   0.000   0.000
0.01125   0.00175   293.542   1137.797   268.000   268.000   10.720   10.720   0.000   0.000
0.01375   0.00175   293.692   1137.797   268.000   268.000   10.720   10.720   0.000   0.000
0.01625   0.00175   293.887   1137.797   268.000   268.000   10.720   10.720   0.000   0.000
0.01875   0.00175   294.132   1137.797   268.000   268.000   10.720   10.720   0.000   0.000
0.02125   0.00175   294.435   1137.797   268.000   268.000   10.720   10.720   0.000   0.000