VARIABLES = X, Y, T, ap,an,as,aw,ae,sp,su
ZONE I=20,J=20, F=POINT,t="25.968"
0.00125   0.00975   299.104   1137.797   0.000   268.000   0.000   10.720   0.000   -0.005
0.00375   0.00975   299.357   1137.797   0.000   268.000   10.720   10.720   0.000   -0.005
0.00625   0.00975   299.868   1137.797   0.000   268.000   10.720   10.720   0.000   -0.005
0.00875   0.00975   300.645   1137.797   0.000   268.000   10.720   10.720   0.000   -0.006
0.01125   0.00975   301.703   1137.797   0.000   268.000   10.720   10.720   0.000   -0.007
0.01375   0.00975   303.058   1137.797   0.000   268.000   10.720   10.720   0.000   -0.008
0.01625   0.00975   304.731   1137.797   0.000   268.000   10.720   10.720   0.000   -0.009
0.01875   0.00975   306.748   1137.797   0.000   268.000   10.720   10.720   0.000   -0.010
0.02125   0.00975   309.137   1137.797   0.000   268.000   10.720   10.720   0.000   -0.012
0.02375   0.00975   311.928   1137.797   0.000   268.000   10.720   10.720   0.000   -0.014
0.02625   0.00975   315.163   1137.797   0.000   268.000   10.720   10.720   0.000   -0.017
0.02875   0.00975   318.922   1137.797   0.000   268.000   10.720   10.720   0.000   -0.019
0.03125   0.00975   323.619   1137.797   0.000   268.000   10.720   10.720   0.000   81.037
0.03375   0.00975   327.474   1137.797   0.000   268.000   10.720   10.720   0.000   80.974
0.03625   0.00975   330.899   1137.797   0.000   268.000   10.720   10.720   0.000   80.916
0.03875   0.00975   333.971   1137.797   0.000   268.000   10.720   10.720   0.000   80.862
0.04125   0.00975   336.724   1137.797   0.000   268.000   10.720   10.720   0.000   80.813
0.04375   0.00975   339.179   1137.797   0.000   268.000   10.720   10.720   0.000   80.768
0.04625   0.00975   341.346   1137.797   0.000   268.000   10.720   10.720   0.000   80.728
0.04875   0.00975   343.213   1137.797   0.000   268.000   10.720   0.000   0.000   96.839
0.00125   0.00925   299.102   1137.797   268.000   268.000   0.000   10.720   0.000   0.000
0.00375   0.00925   299.355   1137.797   268.000   268.000   10.720   10.720   0.000   0.000
0.00625   0.00925   299.866   1137.797   268.000   268.000   10.720   10.720   0.000   0.000
0.00875   0.00925   300.644   1137.797   268.000   268.000   10.720   10.720   0.000   0.000
0.01125   0.00925   301.701   1137.797   268.000   268.000   10.720   10.720   0.000   0.000
0.01375   0.00925   303.056   1137.797   268.000   268.000   10.720   10.720   0.000   0.000
0.01625   0.00925   304.729   1137.797   268.000   268.000   10.720   10.720   0.000   0.000
0.01875   0.00925   306.746   1137.797   268.000   268.000   10.720   10.720   0.000   0.000
0.02125   0.00925   309.133   1137.797   268.000   268.000   10.720   10.720   0.000   0.000
0.02375   0.00925   311.924   1137.797   268.000   268.000   10.720   10.720   0.000   0.000
0.02625   0.00925   315.157   1137.797   268.000   268.000   10.720   10.720   0.000   0.000
0.02875   0.00925   318.900   1137.797   268.000   268.000   10.720   10.720   0.000   0.000
0.03125   0.00925   323.367   1137.797   268.000   268.000   10.720   10.720   0.000   0.000
0.03375   0.00925   327.206   1137.797   268.000   268.000   10.720   10.720   0.000   0.000
0.03625   0.00925   330.630   1137.797   268.000   268.000   10.720   10.720   0.000   0.000
0.03875   0.00925   333.701   1137.797   268.000   268.000   10.720   10.720   0.000   0.000
0.04125   0.00925   336.454   1137.797   268.000   268.000   10.720   10.720   0.000   0.000
0.04375   0.00925   338.909   1137.797   268.000   268.000   10.720   10.720   0.000   0.000
0.04625   0.00925   341.077   1137.797   268.000   268.000   10.720   10.720   0.000   0.000
0.04875   0.00925   342.947   1137.797   268.000   268.000   10.720   0.000   0.000   16.147
0.00125   0.00875   299.099   1137.797   268.000   268.000   0.000   10.720   0.000   0.000
0.00375   0.00875   299.353   1137.797   268.000   268.000   10.720   10.720   0.000   0.000
0.00625   0.00875   299.863   1137.797   268.000   268.000   10.720   10.720   0.000   0.000
0.00875   0.00875   300.640   1137.797   268.000   268.000   10.720   10.720   0.000   0.000
0.01125   0.00875   301.697   1137.797   268.000   268.000   10.720   10.720   0.000   0.000
0.01375   0.00875   303.052   1137.797   268.000   268.000   10.720   10.720   0.000   0.000
0.01625   0.00875   304.724   1137.797   268.000   268.000   10.720   10.720   0.000   0.000
0.01875   0.00875   306.740   1137.797   268.000   268.000   10.720   10.720   0.000   0.000
0.02125   0.00875   309.127   1137.797   268.000   268.000   10.720   10.720   0.000   0.000
0.02375   0.00875   311.917   1137.797   268.000   268.000   10.720   10.720   0.000   0.000
0.02625   0.00875   315.145   1137.797   268.000   268.000   10.720   10.720   0.000   0.000
0.02875   0.00875   318.865   1137.797   268.000   268.000   10.720   10.720   0.000   0.000
0.03125   0.00875   323.157   1137.797   268.000   268.000   10.720   10.720   0.000   0.000
0.03375   0.00875   326.973   1137.797   268.000   268.000   10.720   10.720   0.000   0.000
0.03625   0.00875   330.392   1137.797   268.000   268.000   10.720   10.720   0.000   0.000
0.03875   0.00875   333.463   1137.797   268.000   268.000   10.720   10.720   0.000   0.000
0.04125   0.00875   336.215   1137.797   268.000   268.000   10.720   10.720   0.000   0.000
0.04375   0.00875   338.670   1137.797   268.000   268.000   10.720   10.720   0.000   0.000
0.04625   0.00875   340.840   1137.797   268.000   268.000   10.720   10.720   0.000   0.000
0.04875   0.00875   342.715   1137.797   268.000   268.000   10.720   0.000   0.000   16.148
0.00125   0.00825   299.095   1137.797   268.000   268.000   0.000   10.720   0.000   0.000
0.00375   0.00825   299.348   1137.797   268.000   268.000   10.720   10.720   0.000   0.000
0.00625   0.00825   299.858   1137.797   268.000   268.000   10.720   10.720   0.000   0.000
0.00875   0.00825   300.635   1137.797   268.000   268.000   10.720   10.720   0.000   0.000
0.01125   0.00825   301.692   1137.797   268.000   268.000   10.720   10.720   0.000   0.000
0.01375   0.00825   303.045   1137.797   268.000   268.000   10.720   10.720   0.000   0.000
0.01625   0.00825   304.717   1137.797   268.000   268.000   10.720   10.720   0.000   0.000
0.01875   0.00825   306.732   1137.797   268.000   268.000   10.720   10.720   0.000   0.000
0.02125   0.00825   309.118   1137.797   268.000   268.000   10.720   10.720   0.000   0.000
0.02375   0.00825   311.906   1137.797   268.000   268.000   10.720   10.720   0.000   0.000
0.02625   0.00825   315.129   1137.797   268.000   268.000   10.720   10.720   0.000   0.000
0.02875   0.00825   318.824   1137.797   268.000   268.000   10.720   10.720   0.000   0.000
0.03125   0.00825   322.982   1137.797   268.000   268.000   10.720   10.720   0.000   0.000
0.03375   0.00825   326.773   1137.797   268.000   268.000   10.720   10.720   0.000   0.000
0.03625   0.00825   330.187   1137.797   268.000   268.000   10.720   10.720   0.000   0.000
0.03875   0.00825   333.257   1137.797   268.000   268.000   10.720   10.720   0.000   0.000
0.04125   0.00825   336.008   1137.797   268.000   268.000   10.720   10.720   0.000   0.000
0.04375   0.00825   338.463   1137.797   268.000   268.000   10.720   10.720   0.000   0.000
0.04625   0.00825   340.636   1137.797   268.000   268.000   10.720   10.720   0.000   0.000
0.04875   0.00825   342.519   1137.797   268.000   268.000   10.720   0.000   0.000   16.149
0.00125   0.00775   299.089   1137.797   268.000   268.000   0.000   10.720   0.000   0.000
0.00375   0.00775   299.342   1137.797   268.000   268.000   10.720   10.720   0.000   0.000
0.00625   0.00775   299.852   1137.797   268.000   268.000   10.720   10.720   0.000   0.000
0.00875   0.00775   300.628   1137.797   268.000   268.000   10.720   10.720   0.000   0.000
0.01125   0.00775   301.684   1137.797   268.000   268.000   10.720   10.720   0.000   0.000
0.01375   0.00775   303.037   1137.797   268.000   268.000   10.720   10.720   0.000   0.000
0.01625   0.00775   304.708   1137.797   268.000   268.000   10.720   10.720   0.000   0.000
0.01875   0.00775   306.722   1137.797   268.000   268.000   10.720   10.720   0.000   0.000
0.02125   0.00775   309.106   1137.797   268.000   268.000   10.720   10.720   0.000   0.000
0.02375   0.00775   311.891   1137.797   268.000   268.000   10.720   10.720   0.000   0.000
0.02625   0.00775   315.108   1137.797   268.000   268.000   10.720   10.720   0.000   0.000
0.02875   0.00775   318.779   1137.797   268.000   268.000   10.720   10.720   0.000   0.000
0.03125   0.00775   322.839   1137.797   268.000   268.000   10.720   10.720   0.000   0.000
0.03375   0.00775   326.606   1137.797   268.000   268.000   10.720   10.720   0.000   0.000
0.03625   0.00775   330.014   1137.797   268.000   268.000   10.720   10.720   0.000   0.000
0.03875   0.00775   333.082   1137.797   268.000   268.000   10.720   10.720   0.000   0.000
0.04125   0.00775   335.832   1137.797   268.000   268.000   10.720   10.720   0.000   0.000
0.04375   0.00775   338.287   1137.797   268.000   268.000   10.720   10.720   0.000   0.000
0.04625   0.00775   340.463   1137.797   268.000   268.000   10.720   10.720   0.000   0.000
0.04875   0.00775   342.359   1137.797   268.000   268.000   10.720   0.000   0.000   16.149
0.00125   0.00725   299.082   1137.797   268.000   268.000   0.000   10.720   0.000   0.000
0.00375   0.00725   299.335   1137.797   268.000   268.000   10.720   10.720   0.000   0.000
0.00625   0.00725   299.844   1137.797   268.000   268.000   10.720   10.720   0.000   0.000
0.00875   0.00725   300.620   1137.797   268.000   268.000   10.720   10.720   0.000   0.000
0.01125   0.00725   301.675   1137.797   268.000   268.000   10.720   10.720   0.000   0.000
0.01375   0.00725   303.027   1137.797   268.000   268.000   10.720   10.720   0.000   0.000
0.01625   0.00725   304.696   1137.797   268.000   268.000   10.720   10.720   0.000   0.000
0.01875   0.00725   306.708   1137.797   268.000   268.000   10.720   10.720   0.000   0.000
0.02125   0.00725   309.091   1137.797   268.000   268.000   10.720   10.720   0.000   0.000
0.02375   0.00725   311.873   1137.797   268.000   268.000   10.720   10.720   0.000   0.000
0.02625   0.00725   315.085   1137.797   268.000   268.000   10.720   10.720   0.000   0.000
0.02875   0.00725   318.735   1137.797   268.000   268.000   10.720   10.720   0.000   0.000
0.03125   0.00725   322.724   1137.797   268.000   268.000   10.720   10.720   0.000   0.000
0.03375   0.00725   326.471   1137.797   268.000   268.000   10.720   10.720   0.000   0.000
0.03625   0.00725   329.874   1137.797   268.000   268.000   10.720   10.720   0.000   0.000
0.03875   0.00725   332.938   1137.797   268.000   268.000   10.720   10.720   0.000   0.000
0.04125   0.00725   335.688   1137.797   268.000   268.000   10.720   10.720   0.000   0.000
0.04375   0.00725   338.142   1137.797   268.000   268.000   10.720   10.720   0.000   0.000
0.04625   0.00725   340.321   1137.797   268.000   268.000   10.720   10.720   0.000   0.000
0.04875   0.00725   342.234   1137.797   268.000   268.000   10.720   0.000   0.000   16.150
0.00125   0.00675   299.074   1137.797   268.000   268.000   0.000   10.720   0.000   0.000
0.00375   0.00675   299.326   1137.797   268.000   268.000   10.720   10.720   0.000   0.000
0.00625   0.00675   299.835   1137.797   268.000   268.000   10.720   10.720   0.000   0.000
0.00875   0.00675   300.610   1137.797   268.000   268.000   10.720   10.720   0.000   0.000
0.01125   0.00675   301.664   1137.797   268.000   268.000   10.720   10.720   0.000   0.000
0.01375   0.00675   303.014   1137.797   268.000   268.000   10.720   10.720   0.000   0.000
0.01625   0.00675   304.682   1137.797   268.000   268.000   10.720   10.720   0.000   0.000
0.01875   0.00675   306.692   1137.797   268.000   268.000   10.720   10.720   0.000   0.000
0.02125   0.00675   309.073   1137.797   268.000   268.000   10.720   10.720   0.000   0.000
0.02375   0.00675   311.852   1137.797   268.000   268.000   10.720   10.720   0.000   0.000
0.02625   0.00675   315.058   1137.797   268.000   268.000   10.720   10.720   0.000   0.000
0.02875   0.00675   318.693   1137.797   268.000   268.000   10.720   10.720   0.000   0.000
0.03125   0.00675   322.635   1137.797   268.000   268.000   10.720   10.720   0.000   0.000
0.03375   0.00675   326.367   1137.797   268.000   268.000   10.720   10.720   0.000   0.000
0.03625   0.00675   329.764   1137.797   268.000   268.000   10.720   10.720   0.000   0.000
0.03875   0.00675   332.827   1137.797   268.000   268.000   10.720   10.720   0.000   0.000
0.04125   0.00675   335.574   1137.797   268.000   268.000   10.720   10.720   0.000   0.000
0.04375   0.00675   338.029   1137.797   268.000   268.000   10.720   10.720   0.000   0.000
0.04625   0.00675   340.211   1137.797   268.000   268.000   10.720   10.720   0.000   0.000
0.04875   0.00675   342.146   1137.797   268.000   268.000   10.720   0.000   0.000   16.150
0.00125   0.00625   299.063   1137.797   268.000   2.085   0.000   10.720   0.000   0.000
0.00375   0.00625   299.315   1137.797   268.000   2.085   10.720   10.720   0.000   0.000
0.00625   0.00625   299.824   1137.797   268.000   2.085   10.720   10.720   0.000   0.000
0.00875   0.00625   300.598   1137.797   268.000   2.085   10.720   10.720   0.000   0.000
0.01125   0.00625   301.651   1137.797   268.000   2.085   10.720   10.720   0.000   0.000
0.01375   0.00625   303.000   1137.797   268.000   2.085   10.720   10.720   0.000   0.000
0.01625   0.00625   304.666   1137.797   268.000   2.085   10.720   10.720   0.000   0.000
0.01875   0.00625   306.674   1137.797   268.000   2.085   10.720   10.720   0.000   0.000
0.02125   0.00625   309.052   1137.797   268.000   2.085   10.720   10.720   0.000   0.000
0.02375   0.00625   311.828   1137.797   268.000   2.085   10.720   10.720   0.000   0.000
0.02625   0.00625   315.029   1137.797   268.000   2.085   10.720   10.720   0.000   0.000
0.02875   0.00625   318.654   1137.797   268.000   2.085   10.720   10.720   0.000   0.000
0.03125   0.00625   322.572   1137.797   268.000   2.085   10.720   10.720   0.000   0.000
0.03375   0.00625   326.293   1137.797   268.000   2.085   10.720   10.720   0.000   0.000
0.03625   0.00625   329.687   1137.797   268.000   2.085   10.720   10.720   0.000   0.000
0.03875   0.00625   332.747   1137.797   268.000   2.085   10.720   10.720   0.000   0.000
0.04125   0.00625   335.492   1137.797   268.000   2.085   10.720   10.720   0.000   0.000
0.04375   0.00625   337.946   1137.797   268.000   2.085   10.720   10.720   0.000   0.000
0.04625   0.00625   340.130   1137.797   268.000   2.085   10.720   10.720   0.000   0.000
0.04875   0.00625   342.095   1137.797   268.000   2.085   10.720   0.000   0.000   16.150
0.00125   0.00575   297.584   686.719   2.085   1.046   0.000   0.042   0.000   0.000
0.00375   0.00575   297.792   686.719   2.085   1.046   0.042   0.042   0.000   0.000
0.00625   0.00575   298.212   686.719   2.085   1.046   0.042   0.042   0.000   0.000
0.00875   0.00575   298.854   686.719   2.085   1.046   0.042   0.042   0.000   0.000
0.01125   0.00575   299.730   686.719   2.085   1.046   0.042   0.042   0.000   0.000
0.01375   0.00575   300.856   686.719   2.085   1.046   0.042   0.042   0.000   0.000
0.01625   0.00575   302.254   686.719   2.085   1.046   0.042   0.042   0.000   0.000
0.01875   0.00575   303.947   686.719   2.085   1.046   0.042   0.042   0.000   0.000
0.02125   0.00575   305.963   686.719   2.085   1.046   0.042   0.042   0.000   0.000
0.02375   0.00575   308.331   686.719   2.085   1.046   0.042   0.042   0.000   0.000
0.02625   0.00575   311.074   686.719   2.085   1.046   0.042   0.042   0.000   0.000
0.02875   0.00575   314.195   686.719   2.085   1.046   0.042   0.042   0.000   0.000
0.03125   0.00575   317.577   686.719   2.085   1.046   0.042   0.042   0.000   0.000
0.03375   0.00575   320.813   686.719   2.085   1.046   0.042   0.042   0.000   0.000
0.03625   0.00575   323.788   686.719   2.085   1.046   0.042   0.042   0.000   0.000
0.03875   0.00575   326.497   686.719   2.085   1.046   0.042   0.042   0.000   0.000
0.04125   0.00575   328.962   686.719   2.085   1.046   0.042   0.042   0.000   0.000
0.04375   0.00575   331.218   686.719   2.085   1.046   0.042   0.042   0.000   0.000
0.04625   0.00575   333.531   686.719   2.085   1.046   0.042   0.042   0.000   0.000
0.04875   0.00575   340.574   686.719   2.085   1.046   0.042   0.000   0.000   6.058
0.00125   0.00525   295.742   686.719   1.046   1.046   0.000   0.042   0.000   0.000
0.00375   0.00525   295.883   686.719   1.046   1.046   0.042   0.042   0.000   0.000
0.00625   0.00525   296.171   686.719   1.046   1.046   0.042   0.042   0.000   0.000
0.00875   0.00525   296.611   686.719   1.046   1.046   0.042   0.042   0.000   0.000
0.01125   0.00525   297.214   686.719   1.046   1.046   0.042   0.042   0.000   0.000
0.01375   0.00525   297.996   686.719   1.046   1.046   0.042   0.042   0.000   0.000
0.01625   0.00525   298.973   686.719   1.046   1.046   0.042   0.042   0.000   0.000
0.01875   0.00525   300.167   686.719   1.046   1.046   0.042   0.042   0.000   0.000
0.02125   0.00525   301.600   686.719   1.046   1.046   0.042   0.042   0.000   0.000
0.02375   0.00525   303.296   686.719   1.046   1.046   0.042   0.042   0.000   0.000
0.02625   0.00525   305.278   686.719   1.046   1.046   0.042   0.042   0.000   0.000
0.02875   0.00525   307.549   686.719   1.046   1.046   0.042   0.042   0.000   0.000
0.03125   0.00525   310.028   686.719   1.046   1.046   0.042   0.042   0.000   0.000
0.03375   0.00525   312.443   686.719   1.046   1.046   0.042   0.042   0.000   0.000
0.03625   0.00525   314.712   686.719   1.046   1.046   0.042   0.042   0.000   0.000
0.03875   0.00525   316.836   686.719   1.046   1.046   0.042   0.042   0.000   0.000
0.04125   0.00525   318.836   686.719   1.046   1.046   0.042   0.042   0.000   0.000
0.04375   0.00525   320.764   686.719   1.046   1.046   0.042   0.042   0.000   0.000
0.04625   0.00525   323.197   686.719   1.046   1.046   0.042   0.042   0.000   0.000
0.04875   0.00525   335.069   686.719   1.046   1.046   0.042   0.000   0.000   6.066
0.00125   0.00475   294.668   686.719   1.046   1.046   0.000   0.042   0.000   0.000
0.00375   0.00475   294.763   686.719   1.046   1.046   0.042   0.042   0.000   0.000
0.00625   0.00475   294.955   686.719   1.046   1.046   0.042   0.042   0.000   0.000
0.00875   0.00475   295.249   686.719   1.046   1.046   0.042   0.042   0.000   0.000
0.01125   0.00475   295.654   686.719   1.046   1.046   0.042   0.042   0.000   0.000
0.01375   0.00475   296.181   686.719   1.046   1.046   0.042   0.042   0.000   0.000
0.01625   0.00475   296.842   686.719   1.046   1.046   0.042   0.042   0.000   0.000
0.01875   0.00475   297.653   686.719   1.046   1.046   0.042   0.042   0.000   0.000
0.02125   0.00475   298.631   686.719   1.046   1.046   0.042   0.042   0.000   0.000
0.02375   0.00475   299.794   686.719   1.046   1.046   0.042   0.042   0.000   0.000
0.02625   0.00475   301.158   686.719   1.046   1.046   0.042   0.042   0.000   0.000
0.02875   0.00475   302.728   686.719   1.046   1.046   0.042   0.042   0.000   0.000
0.03125   0.00475   304.457   686.719   1.046   1.046   0.042   0.042   0.000   0.000
0.03375   0.00475   306.192   686.719   1.046   1.046   0.042   0.042   0.000   0.000
0.03625   0.00475   307.884   686.719   1.046   1.046   0.042   0.042   0.000   0.000
0.03875   0.00475   309.537   686.719   1.046   1.046   0.042   0.042   0.000   0.000
0.04125   0.00475   311.167   686.719   1.046   1.046   0.042   0.042   0.000   0.000
0.04375   0.00475   312.824   686.719   1.046   1.046   0.042   0.042   0.000   0.000
0.04625   0.00475   315.078   686.719   1.046   1.046   0.042   0.042   0.000   0.000
0.04875   0.00475   326.870   686.719   1.046   1.046   0.042   0.000   0.000   6.076
0.00125   0.00425   294.125   686.719   1.046   2.085   0.000   0.042   0.000   0.000
0.00375   0.00425   294.187   686.719   1.046   2.085   0.042   0.042   0.000   0.000
0.00625   0.00425   294.314   686.719   1.046   2.085   0.042   0.042   0.000   0.000
0.00875   0.00425   294.507   686.719   1.046   2.085   0.042   0.042   0.000   0.000
0.01125   0.00425   294.773   686.719   1.046   2.085   0.042   0.042   0.000   0.000
0.01375   0.00425   295.117   686.719   1.046   2.085   0.042   0.042   0.000   0.000
0.01625   0.00425   295.547   686.719   1.046   2.085   0.042   0.042   0.000   0.000
0.01875   0.00425   296.071   686.719   1.046   2.085   0.042   0.042   0.000   0.000
0.02125   0.00425   296.699   686.719   1.046   2.085   0.042   0.042   0.000   0.000
0.02375   0.00425   297.441   686.719   1.046   2.085   0.042   0.042   0.000   0.000
0.02625   0.00425   298.305   686.719   1.046   2.085   0.042   0.042   0.000   0.000
0.02875   0.00425   299.298   686.719   1.046   2.085   0.042   0.042   0.000   0.000
0.03125   0.00425   300.404   686.719   1.046   2.085   0.042   0.042   0.000   0.000
0.03375   0.00425   301.575   686.719   1.046   2.085   0.042   0.042   0.000   0.000
0.03625   0.00425   302.799   686.719   1.046   2.085   0.042   0.042   0.000   0.000
0.03875   0.00425   304.077   686.719   1.046   2.085   0.042   0.042   0.000   0.000
0.04125   0.00425   305.419   686.719   1.046   2.085   0.042   0.042   0.000   0.000
0.04375   0.00425   306.848   686.719   1.046   2.085   0.042   0.042   0.000   0.000
0.04625   0.00425   308.617   686.719   1.046   2.085   0.042   0.042   0.000   0.000
0.04875   0.00425   315.406   686.719   1.046   2.085   0.042   0.000   0.000   6.089
0.00125   0.00375   294.040   1137.797   2.085   268.000   0.000   10.720   0.000   0.000
0.00375   0.00375   294.091   1137.797   2.085   268.000   10.720   10.720   0.000   0.000
0.00625   0.00375   294.195   1137.797   2.085   268.000   10.720   10.720   0.000   0.000
0.00875   0.00375   294.354   1137.797   2.085   268.000   10.720   10.720   0.000   0.000
0.01125   0.00375   294.570   1137.797   2.085   268.000   10.720   10.720   0.000   0.000
0.01375   0.00375   294.847   1137.797   2.085   268.000   10.720   10.720   0.000   0.000
0.01625   0.00375   295.190   1137.797   2.085   268.000   10.720   10.720   0.000   0.000
0.01875   0.00375   295.603   1137.797   2.085   268.000   10.720   10.720   0.000   0.000
0.02125   0.00375   296.091   1137.797   2.085   268.000   10.720   10.720   0.000   0.000
0.02375   0.00375   296.660   1137.797   2.085   268.000   10.720   10.720   0.000   0.000
0.02625   0.00375   297.314   1137.797   2.085   268.000   10.720   10.720   0.000   0.000
0.02875   0.00375   298.057   1137.797   2.085   268.000   10.720   10.720   0.000   0.000
0.03125   0.00375   298.892   1137.797   2.085   268.000   10.720   10.720   0.000   0.000
0.03375   0.00375   299.820   1137.797   2.085   268.000   10.720   10.720   0.000   0.000
0.03625   0.00375   300.843   1137.797   2.085   268.000   10.720   10.720   0.000   0.000
0.03875   0.00375   301.966   1137.797   2.085   268.000   10.720   10.720   0.000   0.000
0.04125   0.00375   303.190   1137.797   2.085   268.000   10.720   10.720   0.000   0.000
0.04375   0.00375   304.521   1137.797   2.085   268.000   10.720   10.720   0.000   0.000
0.04625   0.00375   305.970   1137.797   2.085   268.000   10.720   10.720   0.000   0.000
0.04875   0.00375   307.574   1137.797   2.085   268.000   10.720   0.000   0.000   16.258
0.00125   0.00325   294.039   1137.797   268.000   268.000   0.000   10.720   0.000   0.000
0.00375   0.00325   294.091   1137.797   268.000   268.000   10.720   10.720   0.000   0.000
0.00625   0.00325   294.195   1137.797   268.000   268.000   10.720   10.720   0.000   0.000
0.00875   0.00325   294.353   1137.797   268.000   268.000   10.720   10.720   0.000   0.000
0.01125   0.00325   294.569   1137.797   268.000   268.000   10.720   10.720   0.000   0.000
0.01375   0.00325   294.845   1137.797   268.000   268.000   10.720   10.720   0.000   0.000
0.01625   0.00325   295.187   1137.797   268.000   268.000   10.720   10.720   0.000   0.000
0.01875   0.00325   295.600   1137.797   268.000   268.000   10.720   10.720   0.000   0.000
0.02125   0.00325   296.087   1137.797   268.000   268.000   10.720   10.720   0.000   0.000
0.02375   0.00325   296.655   1137.797   268.000   268.000   10.720   10.720   0.000   0.000
0.02625   0.00325   297.307   1137.797   268.000   268.000   10.720   10.720   0.000   0.000
0.02875   0.00325   298.049   1137.797   268.000   268.000   10.720   10.720   0.000   0.000
0.03125   0.00325   298.881   1137.797   268.000   268.000   10.720   10.720   0.000   0.000
0.03375   0.00325   299.808   1137.797   268.000   268.000   10.720   10.720   0.000   0.000
0.03625   0.00325   300.830   1137.797   268.000   268.000   10.720   10.720   0.000   0.000
0.03875   0.00325   301.952   1137.797   268.000   268.000   10.720   10.720   0.000   0.000
0.04125   0.00325   303.175   1137.797   268.000   268.000   10.720   10.720   0.000   0.000
0.04375   0.00325   304.505   1137.797   268.000   268.000   10.720   10.720   0.000   0.000
0.04625   0.00325   305.949   1137.797   268.000   268.000   10.720   10.720   0.000   0.000
0.04875   0.00325   307.523   1137.797   268.000   268.000   10.720   0.000   0.000   16.258
0.00125   0.00275   294.039   1137.797   268.000   268.000   0.000   10.720   0.000   0.000
0.00375   0.00275   294.090   1137.797   268.000   268.000   10.720   10.720   0.000   0.000
0.00625   0.00275   294.194   1137.797   268.000   268.000   10.720   10.720   0.000   0.000
0.00875   0.00275   294.352   1137.797   268.000   268.000   10.720   10.720   0.000   0.000
0.01125   0.00275   294.567   1137.797   268.000   268.000   10.720   10.720   0.000   0.000
0.01375   0.00275   294.844   1137.797   268.000   268.000   10.720   10.720   0.000   0.000
0.01625   0.00275   295.185   1137.797   268.000   268.000   10.720   10.720   0.000   0.000
0.01875   0.00275   295.597   1137.797   268.000   268.000   10.720   10.720   0.000   0.000
0.02125   0.00275   296.084   1137.797   268.000   268.000   10.720   10.720   0.000   0.000
0.02375   0.00275   296.650   1137.797   268.000   268.000   10.720   10.720   0.000   0.000
0.02625   0.00275   297.302   1137.797   268.000   268.000   10.720   10.720   0.000   0.000
0.02875   0.00275   298.041   1137.797   268.000   268.000   10.720   10.720   0.000   0.000
0.03125   0.00275   298.873   1137.797   268.000   268.000   10.720   10.720   0.000   0.000
0.03375   0.00275   299.798   1137.797   268.000   268.000   10.720   10.720   0.000   0.000
0.03625   0.00275   300.819   1137.797   268.000   268.000   10.720   10.720   0.000   0.000
0.03875   0.00275   301.939   1137.797   268.000   268.000   10.720   10.720   0.000   0.000
0.04125   0.00275   303.162   1137.797   268.000   268.000   10.720   10.720   0.000   0.000
0.04375   0.00275   304.491   1137.797   268.000   268.000   10.720   10.720   0.000   0.000
0.04625   0.00275   305.931   1137.797   268.000   268.000   10.720   10.720   0.000   0.000
0.04875   0.00275   307.482   1137.797   268.000   268.000   10.720   0.000   0.000   16.258
0.00125   0.00225   294.038   1137.797   268.000   268.000   0.000   10.720   0.000   0.000
0.00375   0.00225   294.090   1137.797   268.000   268.000   10.720   10.720   0.000   0.000
0.00625   0.00225   294.193   1137.797   268.000   268.000   10.720   10.720   0.000   0.000
0.00875   0.00225   294.351   1137.797   268.000   268.000   10.720   10.720   0.000   0.000
0.01125   0.00225   294.566   1137.797   268.000   268.000   10.720   10.720   0.000   0.000
0.01375   0.00225   294.842   1137.797   268.000   268.000   10.720   10.720   0.000   0.000
0.01625   0.00225   295.184   1137.797   268.000   268.000   10.720   10.720   0.000   0.000
0.01875   0.00225   295.595   1137.797   268.000   268.000   10.720   10.720   0.000   0.000
0.02125   0.00225   296.081   1137.797   268.000   268.000   10.720   10.720   0.000   0.000
0.02375   0.00225   296.646   1137.797   268.000   268.000   10.720   10.720   0.000   0.000
0.02625   0.00225   297.297   1137.797   268.000   268.000   10.720   10.720   0.000   0.000
0.02875   0.00225   298.035   1137.797   268.000   268.000   10.720   10.720   0.000   0.000
0.03125   0.00225   298.865   1137.797   268.000   268.000   10.720   10.720   0.000   0.000
0.03375   0.00225   299.789   1137.797   268.000   268.000   10.720   10.720   0.000   0.000
0.03625   0.00225   300.810   1137.797   268.000   268.000   10.720   10.720   0.000   0.000
0.03875   0.00225   301.929   1137.797   268.000   268.000   10.720   10.720   0.000   0.000
0.04125   0.00225   303.151   1137.797   268.000   268.000   10.720   10.720   0.000   0.000
0.04375   0.00225   304.479   1137.797   268.000   268.000   10.720   10.720   0.000   0.000
0.04625   0.00225   305.915   1137.797   268.000   268.000   10.720   10.720   0.000   0.000
0.04875   0.00225   307.448   1137.797   268.000   268.000   10.720   0.000   0.000   16.258
0.00125   0.00175   294.038   1137.797   268.000   268.000   0.000   10.720   0.000   0.000
0.00375   0.00175   294.089   1137.797   268.000   268.000   10.720   10.720   0.000   0.000
0.00625   0.00175   294.193   1137.797   268.000   268.000   10.720   10.720   0.000   0.000
0.00875   0.00175   294.351   1137.797   268.000   268.000   10.720   10.720   0.000   0.000
0.01125   0.00175   294.566   1137.797   268.000   268.000   10.720   10.720   0.000   0.000
0.01375   0.00175   294.841   1137.797   268.000   268.000   10.720   10.720   0.000   0.000
0.01625   0.00175   295.182   1137.797   268.000   268.000   10.720   10.720   0.000   0.000
0.01875   0.00175   295.593   1137.797   268.000   268.000   10.720   10.720   0.000   0.000
0.02125   0.00175   296.078   1137.797   268.000   268.000   10.720   10.720   0.000   0.000