VARIABLES = X, Y, T, ap,an,as,aw,ae,sp,su
ZONE I=20,J=20, F=POINT,t="12.448"
0.00125   0.00975   293.918   1137.797   0.000   268.000   0.000   10.720   0.000   -0.001
0.00375   0.00975   294.022   1137.797   0.000   268.000   10.720   10.720   0.000   -0.001
0.00625   0.00975   294.236   1137.797   0.000   268.000   10.720   10.720   0.000   -0.001
0.00875   0.00975   294.573   1137.797   0.000   268.000   10.720   10.720   0.000   -0.001
0.01125   0.00975   295.053   1137.797   0.000   268.000   10.720   10.720   0.000   -0.002
0.01375   0.00975   295.704   1137.797   0.000   268.000   10.720   10.720   0.000   -0.002
0.01625   0.00975   296.557   1137.797   0.000   268.000   10.720   10.720   0.000   -0.003
0.01875   0.00975   297.653   1137.797   0.000   268.000   10.720   10.720   0.000   -0.003
0.02125   0.00975   299.038   1137.797   0.000   268.000   10.720   10.720   0.000   -0.005
0.02375   0.00975   300.765   1137.797   0.000   268.000   10.720   10.720   0.000   -0.006
0.02625   0.00975   302.899   1137.797   0.000   268.000   10.720   10.720   0.000   -0.007
0.02875   0.00975   305.547   1137.797   0.000   268.000   10.720   10.720   0.000   -0.009
0.03125   0.00975   309.153   1137.797   0.000   268.000   10.720   10.720   0.000   81.256
0.03375   0.00975   311.963   1137.797   0.000   268.000   10.720   10.720   0.000   81.216
0.03625   0.00975   314.421   1137.797   0.000   268.000   10.720   10.720   0.000   81.180
0.03875   0.00975   316.632   1137.797   0.000   268.000   10.720   10.720   0.000   81.146
0.04125   0.00975   318.657   1137.797   0.000   268.000   10.720   10.720   0.000   81.115
0.04375   0.00975   320.542   1137.797   0.000   268.000   10.720   10.720   0.000   81.086
0.04625   0.00975   322.318   1137.797   0.000   268.000   10.720   10.720   0.000   81.058
0.04875   0.00975   323.987   1137.797   0.000   268.000   10.720   0.000   0.000   97.242
0.00125   0.00925   293.918   1137.797   268.000   268.000   0.000   10.720   0.000   0.000
0.00375   0.00925   294.021   1137.797   268.000   268.000   10.720   10.720   0.000   0.000
0.00625   0.00925   294.235   1137.797   268.000   268.000   10.720   10.720   0.000   0.000
0.00875   0.00925   294.572   1137.797   268.000   268.000   10.720   10.720   0.000   0.000
0.01125   0.00925   295.053   1137.797   268.000   268.000   10.720   10.720   0.000   0.000
0.01375   0.00925   295.703   1137.797   268.000   268.000   10.720   10.720   0.000   0.000
0.01625   0.00925   296.556   1137.797   268.000   268.000   10.720   10.720   0.000   0.000
0.01875   0.00925   297.652   1137.797   268.000   268.000   10.720   10.720   0.000   0.000
0.02125   0.00925   299.037   1137.797   268.000   268.000   10.720   10.720   0.000   0.000
0.02375   0.00925   300.763   1137.797   268.000   268.000   10.720   10.720   0.000   0.000
0.02625   0.00925   302.894   1137.797   268.000   268.000   10.720   10.720   0.000   0.000
0.02875   0.00925   305.526   1137.797   268.000   268.000   10.720   10.720   0.000   0.000
0.03125   0.00925   308.902   1137.797   268.000   268.000   10.720   10.720   0.000   0.000
0.03375   0.00925   311.696   1137.797   268.000   268.000   10.720   10.720   0.000   0.000
0.03625   0.00925   314.151   1137.797   268.000   268.000   10.720   10.720   0.000   0.000
0.03875   0.00925   316.362   1137.797   268.000   268.000   10.720   10.720   0.000   0.000
0.04125   0.00925   318.387   1137.797   268.000   268.000   10.720   10.720   0.000   0.000
0.04375   0.00925   320.272   1137.797   268.000   268.000   10.720   10.720   0.000   0.000
0.04625   0.00925   322.048   1137.797   268.000   268.000   10.720   10.720   0.000   0.000
0.04875   0.00925   323.720   1137.797   268.000   268.000   10.720   0.000   0.000   16.212
0.00125   0.00875   293.917   1137.797   268.000   268.000   0.000   10.720   0.000   0.000
0.00375   0.00875   294.021   1137.797   268.000   268.000   10.720   10.720   0.000   0.000
0.00625   0.00875   294.234   1137.797   268.000   268.000   10.720   10.720   0.000   0.000
0.00875   0.00875   294.571   1137.797   268.000   268.000   10.720   10.720   0.000   0.000
0.01125   0.00875   295.051   1137.797   268.000   268.000   10.720   10.720   0.000   0.000
0.01375   0.00875   295.701   1137.797   268.000   268.000   10.720   10.720   0.000   0.000
0.01625   0.00875   296.554   1137.797   268.000   268.000   10.720   10.720   0.000   0.000
0.01875   0.00875   297.649   1137.797   268.000   268.000   10.720   10.720   0.000   0.000
0.02125   0.00875   299.033   1137.797   268.000   268.000   10.720   10.720   0.000   0.000
0.02375   0.00875   300.758   1137.797   268.000   268.000   10.720   10.720   0.000   0.000
0.02625   0.00875   302.885   1137.797   268.000   268.000   10.720   10.720   0.000   0.000
0.02875   0.00875   305.494   1137.797   268.000   268.000   10.720   10.720   0.000   0.000
0.03125   0.00875   308.693   1137.797   268.000   268.000   10.720   10.720   0.000   0.000
0.03375   0.00875   311.465   1137.797   268.000   268.000   10.720   10.720   0.000   0.000
0.03625   0.00875   313.916   1137.797   268.000   268.000   10.720   10.720   0.000   0.000
0.03875   0.00875   316.125   1137.797   268.000   268.000   10.720   10.720   0.000   0.000
0.04125   0.00875   318.149   1137.797   268.000   268.000   10.720   10.720   0.000   0.000
0.04375   0.00875   320.034   1137.797   268.000   268.000   10.720   10.720   0.000   0.000
0.04625   0.00875   321.812   1137.797   268.000   268.000   10.720   10.720   0.000   0.000
0.04875   0.00875   323.489   1137.797   268.000   268.000   10.720   0.000   0.000   16.212
0.00125   0.00825   293.916   1137.797   268.000   268.000   0.000   10.720   0.000   0.000
0.00375   0.00825   294.019   1137.797   268.000   268.000   10.720   10.720   0.000   0.000
0.00625   0.00825   294.233   1137.797   268.000   268.000   10.720   10.720   0.000   0.000
0.00875   0.00825   294.570   1137.797   268.000   268.000   10.720   10.720   0.000   0.000
0.01125   0.00825   295.049   1137.797   268.000   268.000   10.720   10.720   0.000   0.000
0.01375   0.00825   295.699   1137.797   268.000   268.000   10.720   10.720   0.000   0.000
0.01625   0.00825   296.551   1137.797   268.000   268.000   10.720   10.720   0.000   0.000
0.01875   0.00825   297.645   1137.797   268.000   268.000   10.720   10.720   0.000   0.000
0.02125   0.00825   299.028   1137.797   268.000   268.000   10.720   10.720   0.000   0.000
0.02375   0.00825   300.751   1137.797   268.000   268.000   10.720   10.720   0.000   0.000
0.02625   0.00825   302.872   1137.797   268.000   268.000   10.720   10.720   0.000   0.000
0.02875   0.00825   305.456   1137.797   268.000   268.000   10.720   10.720   0.000   0.000
0.03125   0.00825   308.522   1137.797   268.000   268.000   10.720   10.720   0.000   0.000
0.03375   0.00825   311.267   1137.797   268.000   268.000   10.720   10.720   0.000   0.000
0.03625   0.00825   313.713   1137.797   268.000   268.000   10.720   10.720   0.000   0.000
0.03875   0.00825   315.920   1137.797   268.000   268.000   10.720   10.720   0.000   0.000
0.04125   0.00825   317.944   1137.797   268.000   268.000   10.720   10.720   0.000   0.000
0.04375   0.00825   319.828   1137.797   268.000   268.000   10.720   10.720   0.000   0.000
0.04625   0.00825   321.608   1137.797   268.000   268.000   10.720   10.720   0.000   0.000
0.04875   0.00825   323.293   1137.797   268.000   268.000   10.720   0.000   0.000   16.213
0.00125   0.00775   293.915   1137.797   268.000   268.000   0.000   10.720   0.000   0.000
0.00375   0.00775   294.018   1137.797   268.000   268.000   10.720   10.720   0.000   0.000
0.00625   0.00775   294.231   1137.797   268.000   268.000   10.720   10.720   0.000   0.000
0.00875   0.00775   294.567   1137.797   268.000   268.000   10.720   10.720   0.000   0.000
0.01125   0.00775   295.047   1137.797   268.000   268.000   10.720   10.720   0.000   0.000
0.01375   0.00775   295.695   1137.797   268.000   268.000   10.720   10.720   0.000   0.000
0.01625   0.00775   296.546   1137.797   268.000   268.000   10.720   10.720   0.000   0.000
0.01875   0.00775   297.639   1137.797   268.000   268.000   10.720   10.720   0.000   0.000
0.02125   0.00775   299.021   1137.797   268.000   268.000   10.720   10.720   0.000   0.000
0.02375   0.00775   300.741   1137.797   268.000   268.000   10.720   10.720   0.000   0.000
0.02625   0.00775   302.857   1137.797   268.000   268.000   10.720   10.720   0.000   0.000
0.02875   0.00775   305.416   1137.797   268.000   268.000   10.720   10.720   0.000   0.000
0.03125   0.00775   308.383   1137.797   268.000   268.000   10.720   10.720   0.000   0.000
0.03375   0.00775   311.104   1137.797   268.000   268.000   10.720   10.720   0.000   0.000
0.03625   0.00775   313.544   1137.797   268.000   268.000   10.720   10.720   0.000   0.000
0.03875   0.00775   315.749   1137.797   268.000   268.000   10.720   10.720   0.000   0.000
0.04125   0.00775   317.771   1137.797   268.000   268.000   10.720   10.720   0.000   0.000
0.04375   0.00775   319.655   1137.797   268.000   268.000   10.720   10.720   0.000   0.000
0.04625   0.00775   321.437   1137.797   268.000   268.000   10.720   10.720   0.000   0.000
0.04875   0.00775   323.134   1137.797   268.000   268.000   10.720   0.000   0.000   16.214
0.00125   0.00725   293.913   1137.797   268.000   268.000   0.000   10.720   0.000   0.000
0.00375   0.00725   294.016   1137.797   268.000   268.000   10.720   10.720   0.000   0.000
0.00625   0.00725   294.229   1137.797   268.000   268.000   10.720   10.720   0.000   0.000
0.00875   0.00725   294.565   1137.797   268.000   268.000   10.720   10.720   0.000   0.000
0.01125   0.00725   295.043   1137.797   268.000   268.000   10.720   10.720   0.000   0.000
0.01375   0.00725   295.691   1137.797   268.000   268.000   10.720   10.720   0.000   0.000
0.01625   0.00725   296.541   1137.797   268.000   268.000   10.720   10.720   0.000   0.000
0.01875   0.00725   297.633   1137.797   268.000   268.000   10.720   10.720   0.000   0.000
0.02125   0.00725   299.012   1137.797   268.000   268.000   10.720   10.720   0.000   0.000
0.02375   0.00725   300.730   1137.797   268.000   268.000   10.720   10.720   0.000   0.000
0.02625   0.00725   302.840   1137.797   268.000   268.000   10.720   10.720   0.000   0.000
0.02875   0.00725   305.378   1137.797   268.000   268.000   10.720   10.720   0.000   0.000
0.03125   0.00725   308.273   1137.797   268.000   268.000   10.720   10.720   0.000   0.000
0.03375   0.00725   310.974   1137.797   268.000   268.000   10.720   10.720   0.000   0.000
0.03625   0.00725   313.408   1137.797   268.000   268.000   10.720   10.720   0.000   0.000
0.03875   0.00725   315.610   1137.797   268.000   268.000   10.720   10.720   0.000   0.000
0.04125   0.00725   317.630   1137.797   268.000   268.000   10.720   10.720   0.000   0.000
0.04375   0.00725   319.513   1137.797   268.000   268.000   10.720   10.720   0.000   0.000
0.04625   0.00725   321.299   1137.797   268.000   268.000   10.720   10.720   0.000   0.000
0.04875   0.00725   323.011   1137.797   268.000   268.000   10.720   0.000   0.000   16.214
0.00125   0.00675   293.911   1137.797   268.000   268.000   0.000   10.720   0.000   0.000
0.00375   0.00675   294.014   1137.797   268.000   268.000   10.720   10.720   0.000   0.000
0.00625   0.00675   294.226   1137.797   268.000   268.000   10.720   10.720   0.000   0.000
0.00875   0.00675   294.561   1137.797   268.000   268.000   10.720   10.720   0.000   0.000
0.01125   0.00675   295.039   1137.797   268.000   268.000   10.720   10.720   0.000   0.000
0.01375   0.00675   295.686   1137.797   268.000   268.000   10.720   10.720   0.000   0.000
0.01625   0.00675   296.534   1137.797   268.000   268.000   10.720   10.720   0.000   0.000
0.01875   0.00675   297.624   1137.797   268.000   268.000   10.720   10.720   0.000   0.000
0.02125   0.00675   299.002   1137.797   268.000   268.000   10.720   10.720   0.000   0.000
0.02375   0.00675   300.717   1137.797   268.000   268.000   10.720   10.720   0.000   0.000
0.02625   0.00675   302.821   1137.797   268.000   268.000   10.720   10.720   0.000   0.000
0.02875   0.00675   305.343   1137.797   268.000   268.000   10.720   10.720   0.000   0.000
0.03125   0.00675   308.192   1137.797   268.000   268.000   10.720   10.720   0.000   0.000
0.03375   0.00675   310.876   1137.797   268.000   268.000   10.720   10.720   0.000   0.000
0.03625   0.00675   313.304   1137.797   268.000   268.000   10.720   10.720   0.000   0.000
0.03875   0.00675   315.503   1137.797   268.000   268.000   10.720   10.720   0.000   0.000
0.04125   0.00675   317.521   1137.797   268.000   268.000   10.720   10.720   0.000   0.000
0.04375   0.00675   319.404   1137.797   268.000   268.000   10.720   10.720   0.000   0.000
0.04625   0.00675   321.192   1137.797   268.000   268.000   10.720   10.720   0.000   0.000
0.04875   0.00675   322.925   1137.797   268.000   268.000   10.720   0.000   0.000   16.214
0.00125   0.00625   293.908   1137.797   268.000   2.085   0.000   10.720   0.000   0.000
0.00375   0.00625   294.011   1137.797   268.000   2.085   10.720   10.720   0.000   0.000
0.00625   0.00625   294.223   1137.797   268.000   2.085   10.720   10.720   0.000   0.000
0.00875   0.00625   294.557   1137.797   268.000   2.085   10.720   10.720   0.000   0.000
0.01125   0.00625   295.034   1137.797   268.000   2.085   10.720   10.720   0.000   0.000
0.01375   0.00625   295.679   1137.797   268.000   2.085   10.720   10.720   0.000   0.000
0.01625   0.00625   296.526   1137.797   268.000   2.085   10.720   10.720   0.000   0.000
0.01875   0.00625   297.615   1137.797   268.000   2.085   10.720   10.720   0.000   0.000
0.02125   0.00625   298.989   1137.797   268.000   2.085   10.720   10.720   0.000   0.000
0.02375   0.00625   300.702   1137.797   268.000   2.085   10.720   10.720   0.000   0.000
0.02625   0.00625   302.801   1137.797   268.000   2.085   10.720   10.720   0.000   0.000
0.02875   0.00625   305.313   1137.797   268.000   2.085   10.720   10.720   0.000   0.000
0.03125   0.00625   308.136   1137.797   268.000   2.085   10.720   10.720   0.000   0.000
0.03375   0.00625   310.810   1137.797   268.000   2.085   10.720   10.720   0.000   0.000
0.03625   0.00625   313.234   1137.797   268.000   2.085   10.720   10.720   0.000   0.000
0.03875   0.00625   315.430   1137.797   268.000   2.085   10.720   10.720   0.000   0.000
0.04125   0.00625   317.445   1137.797   268.000   2.085   10.720   10.720   0.000   0.000
0.04375   0.00625   319.326   1137.797   268.000   2.085   10.720   10.720   0.000   0.000
0.04625   0.00625   321.115   1137.797   268.000   2.085   10.720   10.720   0.000   0.000
0.04875   0.00625   322.877   1137.797   268.000   2.085   10.720   0.000   0.000   16.214
0.00125   0.00575   293.548   686.719   2.085   1.046   0.000   0.042   0.000   0.000
0.00375   0.00575   293.617   686.719   2.085   1.046   0.042   0.042   0.000   0.000
0.00625   0.00575   293.762   686.719   2.085   1.046   0.042   0.042   0.000   0.000
0.00875   0.00575   293.993   686.719   2.085   1.046   0.042   0.042   0.000   0.000
0.01125   0.00575   294.327   686.719   2.085   1.046   0.042   0.042   0.000   0.000
0.01375   0.00575   294.785   686.719   2.085   1.046   0.042   0.042   0.000   0.000
0.01625   0.00575   295.396   686.719   2.085   1.046   0.042   0.042   0.000   0.000
0.01875   0.00575   296.195   686.719   2.085   1.046   0.042   0.042   0.000   0.000
0.02125   0.00575   297.221   686.719   2.085   1.046   0.042   0.042   0.000   0.000
0.02375   0.00575   298.521   686.719   2.085   1.046   0.042   0.042   0.000   0.000
0.02625   0.00575   300.141   686.719   2.085   1.046   0.042   0.042   0.000   0.000
0.02875   0.00575   302.107   686.719   2.085   1.046   0.042   0.042   0.000   0.000
0.03125   0.00575   304.335   686.719   2.085   1.046   0.042   0.042   0.000   0.000
0.03375   0.00575   306.453   686.719   2.085   1.046   0.042   0.042   0.000   0.000
0.03625   0.00575   308.378   686.719   2.085   1.046   0.042   0.042   0.000   0.000
0.03875   0.00575   310.140   686.719   2.085   1.046   0.042   0.042   0.000   0.000
0.04125   0.00575   311.787   686.719   2.085   1.046   0.042   0.042   0.000   0.000
0.04375   0.00575   313.378   686.719   2.085   1.046   0.042   0.042   0.000   0.000
0.04625   0.00575   315.170   686.719   2.085   1.046   0.042   0.042   0.000   0.000
0.04875   0.00575   321.777   686.719   2.085   1.046   0.042   0.000   0.000   6.082
0.00125   0.00525   293.224   686.719   1.046   1.046   0.000   0.042   0.000   0.000
0.00375   0.00525   293.257   686.719   1.046   1.046   0.042   0.042   0.000   0.000
0.00625   0.00525   293.328   686.719   1.046   1.046   0.042   0.042   0.000   0.000
0.00875   0.00525   293.442   686.719   1.046   1.046   0.042   0.042   0.000   0.000
0.01125   0.00525   293.611   686.719   1.046   1.046   0.042   0.042   0.000   0.000
0.01375   0.00525   293.849   686.719   1.046   1.046   0.042   0.042   0.000   0.000
0.01625   0.00525   294.174   686.719   1.046   1.046   0.042   0.042   0.000   0.000
0.01875   0.00525   294.612   686.719   1.046   1.046   0.042   0.042   0.000   0.000
0.02125   0.00525   295.190   686.719   1.046   1.046   0.042   0.042   0.000   0.000
0.02375   0.00525   295.944   686.719   1.046   1.046   0.042   0.042   0.000   0.000
0.02625   0.00525   296.910   686.719   1.046   1.046   0.042   0.042   0.000   0.000
0.02875   0.00525   298.109   686.719   1.046   1.046   0.042   0.042   0.000   0.000
0.03125   0.00525   299.492   686.719   1.046   1.046   0.042   0.042   0.000   0.000
0.03375   0.00525   300.828   686.719   1.046   1.046   0.042   0.042   0.000   0.000
0.03625   0.00525   302.069   686.719   1.046   1.046   0.042   0.042   0.000   0.000
0.03875   0.00525   303.248   686.719   1.046   1.046   0.042   0.042   0.000   0.000
0.04125   0.00525   304.411   686.719   1.046   1.046   0.042   0.042   0.000   0.000
0.04375   0.00525   305.628   686.719   1.046   1.046   0.042   0.042   0.000   0.000
0.04625   0.00525   307.420   686.719   1.046   1.046   0.042   0.042   0.000   0.000
0.04875   0.00525   318.546   686.719   1.046   1.046   0.042   0.000   0.000   6.085
0.00125   0.00475   293.092   686.719   1.046   1.046   0.000   0.042   0.000   0.000
0.00375   0.00475   293.108   686.719   1.046   1.046   0.042   0.042   0.000   0.000
0.00625   0.00475   293.142   686.719   1.046   1.046   0.042   0.042   0.000   0.000
0.00875   0.00475   293.198   686.719   1.046   1.046   0.042   0.042   0.000   0.000
0.01125   0.00475   293.283   686.719   1.046   1.046   0.042   0.042   0.000   0.000
0.01375   0.00475   293.405   686.719   1.046   1.046   0.042   0.042   0.000   0.000
0.01625   0.00475   293.577   686.719   1.046   1.046   0.042   0.042   0.000   0.000
0.01875   0.00475   293.813   686.719   1.046   1.046   0.042   0.042   0.000   0.000
0.02125   0.00475   294.134   686.719   1.046   1.046   0.042   0.042   0.000   0.000
0.02375   0.00475   294.562   686.719   1.046   1.046   0.042   0.042   0.000   0.000
0.02625   0.00475   295.124   686.719   1.046   1.046   0.042   0.042   0.000   0.000
0.02875   0.00475   295.838   686.719   1.046   1.046   0.042   0.042   0.000   0.000
0.03125   0.00475   296.682   686.719   1.046   1.046   0.042   0.042   0.000   0.000
0.03375   0.00475   297.536   686.719   1.046   1.046   0.042   0.042   0.000   0.000
0.03625   0.00475   298.384   686.719   1.046   1.046   0.042   0.042   0.000   0.000
0.03875   0.00475   299.253   686.719   1.046   1.046   0.042   0.042   0.000   0.000
0.04125   0.00475   300.182   686.719   1.046   1.046   0.042   0.042   0.000   0.000
0.04375   0.00475   301.232   686.719   1.046   1.046   0.042   0.042   0.000   0.000
0.04625   0.00475   302.918   686.719   1.046   1.046   0.042   0.042   0.000   0.000
0.04875   0.00475   313.995   686.719   1.046   1.046   0.042   0.000   0.000   6.090
0.00125   0.00425   293.053   686.719   1.046   2.085   0.000   0.042   0.000   0.000
0.00375   0.00425   293.062   686.719   1.046   2.085   0.042   0.042   0.000   0.000
0.00625   0.00425   293.083   686.719   1.046   2.085   0.042   0.042   0.000   0.000
0.00875   0.00425   293.117   686.719   1.046   2.085   0.042   0.042   0.000   0.000
0.01125   0.00425   293.169   686.719   1.046   2.085   0.042   0.042   0.000   0.000
0.01375   0.00425   293.243   686.719   1.046   2.085   0.042   0.042   0.000   0.000
0.01625   0.00425   293.348   686.719   1.046   2.085   0.042   0.042   0.000   0.000
0.01875   0.00425   293.493   686.719   1.046   2.085   0.042   0.042   0.000   0.000
0.02125   0.00425   293.690   686.719   1.046   2.085   0.042   0.042   0.000   0.000
0.02375   0.00425   293.953   686.719   1.046   2.085   0.042   0.042   0.000   0.000
0.02625   0.00425   294.297   686.719   1.046   2.085   0.042   0.042   0.000   0.000
0.02875   0.00425   294.739   686.719   1.046   2.085   0.042   0.042   0.000   0.000
0.03125   0.00425   295.279   686.719   1.046   2.085   0.042   0.042   0.000   0.000
0.03375   0.00425   295.889   686.719   1.046   2.085   0.042   0.042   0.000   0.000
0.03625   0.00425   296.574   686.719   1.046   2.085   0.042   0.042   0.000   0.000
0.03875   0.00425   297.356   686.719   1.046   2.085   0.042   0.042   0.000   0.000
0.04125   0.00425   298.258   686.719   1.046   2.085   0.042   0.042   0.000   0.000
0.04375   0.00425   299.314   686.719   1.046   2.085   0.042   0.042   0.000   0.000
0.04625   0.00425   300.761   686.719   1.046   2.085   0.042   0.042   0.000   0.000
0.04875   0.00425   307.207   686.719   1.046   2.085   0.042   0.000   0.000   6.097
0.00125   0.00375   293.062   1137.797   2.085   268.000   0.000   10.720   0.000   0.000
0.00375   0.00375   293.072   1137.797   2.085   268.000   10.720   10.720   0.000   0.000
0.00625   0.00375   293.093   1137.797   2.085   268.000   10.720   10.720   0.000   0.000
0.00875   0.00375   293.128   1137.797   2.085   268.000   10.720   10.720   0.000   0.000
0.01125   0.00375   293.180   1137.797   2.085   268.000   10.720   10.720   0.000   0.000
0.01375   0.00375   293.252   1137.797   2.085   268.000   10.720   10.720   0.000   0.000
0.01625   0.00375   293.352   1137.797   2.085   268.000   10.720   10.720   0.000   0.000
0.01875   0.00375   293.486   1137.797   2.085   268.000   10.720   10.720   0.000   0.000
0.02125   0.00375   293.664   1137.797   2.085   268.000   10.720   10.720   0.000   0.000
0.02375   0.00375   293.894   1137.797   2.085   268.000   10.720   10.720   0.000   0.000
0.02625   0.00375   294.189   1137.797   2.085   268.000   10.720   10.720   0.000   0.000
0.02875   0.00375   294.561   1137.797   2.085   268.000   10.720   10.720   0.000   0.000
0.03125   0.00375   295.021   1137.797   2.085   268.000   10.720   10.720   0.000   0.000
0.03375   0.00375   295.583   1137.797   2.085   268.000   10.720   10.720   0.000   0.000
0.03625   0.00375   296.260   1137.797   2.085   268.000   10.720   10.720   0.000   0.000
0.03875   0.00375   297.068   1137.797   2.085   268.000   10.720   10.720   0.000   0.000
0.04125   0.00375   298.021   1137.797   2.085   268.000   10.720   10.720   0.000   0.000
0.04375   0.00375   299.134   1137.797   2.085   268.000   10.720   10.720   0.000   0.000
0.04625   0.00375   300.428   1137.797   2.085   268.000   10.720   10.720   0.000   0.000
0.04875   0.00375   301.949   1137.797   2.085   268.000   10.720   0.000   0.000   16.272
0.00125   0.00325   293.062   1137.797   268.000   268.000   0.000   10.720   0.000   0.000
0.00375   0.00325   293.072   1137.797   268.000   268.000   10.720   10.720   0.000   0.000
0.00625   0.00325   293.094   1137.797   268.000   268.000   10.720   10.720   0.000   0.000
0.00875   0.00325   293.128   1137.797   268.000   268.000   10.720   10.720   0.000   0.000
0.01125   0.00325   293.180   1137.797   268.000   268.000   10.720   10.720   0.000   0.000
0.01375   0.00325   293.252   1137.797   268.000   268.000   10.720   10.720   0.000   0.000
0.01625   0.00325   293.352   1137.797   268.000   268.000   10.720   10.720   0.000   0.000
0.01875   0.00325   293.486   1137.797   268.000   268.000   10.720   10.720   0.000   0.000
0.02125   0.00325   293.664   1137.797   268.000   268.000   10.720   10.720   0.000   0.000
0.02375   0.00325   293.894   1137.797   268.000   268.000   10.720   10.720   0.000   0.000
0.02625   0.00325   294.189   1137.797   268.000   268.000   10.720   10.720   0.000   0.000
0.02875   0.00325   294.559   1137.797   268.000   268.000   10.720   10.720   0.000   0.000
0.03125   0.00325   295.019   1137.797   268.000   268.000   10.720   10.720   0.000   0.000
0.03375   0.00325   295.581   1137.797   268.000   268.000   10.720   10.720   0.000   0.000
0.03625   0.00325   296.258   1137.797   268.000   268.000   10.720   10.720   0.000   0.000
0.03875   0.00325   297.066   1137.797   268.000   268.000   10.720   10.720   0.000   0.000
0.04125   0.00325   298.019   1137.797   268.000   268.000   10.720   10.720   0.000   0.000
0.04375   0.00325   299.133   1137.797   268.000   268.000   10.720   10.720   0.000   0.000
0.04625   0.00325   300.424   1137.797   268.000   268.000   10.720   10.720   0.000   0.000
0.04875   0.00325   301.916   1137.797   268.000   268.000   10.720   0.000   0.000   16.272
0.00125   0.00275   293.062   1137.797   268.000   268.000   0.000   10.720   0.000   0.000
0.00375   0.00275   293.072   1137.797   268.000   268.000   10.720   10.720   0.000   0.000
0.00625   0.00275   293.094   1137.797   268.000   268.000   10.720   10.720   0.000   0.000
0.00875   0.00275   293.128   1137.797   268.000   268.000   10.720   10.720   0.000   0.000
0.01125   0.00275   293.180   1137.797   268.000   268.000   10.720   10.720   0.000   0.000
0.01375   0.00275   293.252   1137.797   268.000   268.000   10.720   10.720   0.000   0.000
0.01625   0.00275   293.352   1137.797   268.000   268.000   10.720   10.720   0.000   0.000
0.01875   0.00275   293.486   1137.797   268.000   268.000   10.720   10.720   0.000   0.000
0.02125   0.00275   293.663   1137.797   268.000   268.000   10.720   10.720   0.000   0.000
0.02375   0.00275   293.894   1137.797   268.000   268.000   10.720   10.720   0.000   0.000
0.02625   0.00275   294.188   1137.797   268.000   268.000   10.720   10.720   0.000   0.000
0.02875   0.00275   294.558   1137.797   268.000   268.000   10.720   10.720   0.000   0.000
0.03125   0.00275   295.018   1137.797   268.000   268.000   10.720   10.720   0.000   0.000
0.03375   0.00275   295.579   1137.797   268.000   268.000   10.720   10.720   0.000   0.000
0.03625   0.00275   296.256   1137.797   268.000   268.000   10.720   10.720   0.000   0.000
0.03875   0.00275   297.064   1137.797   268.000   268.000   10.720   10.720   0.000   0.000
0.04125   0.00275   298.018   1137.797   268.000   268.000   10.720   10.720   0.000   0.000
0.04375   0.00275   299.131   1137.797   268.000   268.000   10.720   10.720   0.000   0.000
0.04625   0.00275   300.419   1137.797   268.000   268.000   10.720   10.720   0.000   0.000
0.04875   0.00275   301.889   1137.797   268.000   268.000   10.720   0.000   0.000   16.272
0.00125   0.00225   293.062   1137.797   268.000   268.000   0.000   10.720   0.000   0.000
0.00375   0.00225   293.072   1137.797   268.000   268.000   10.720   10.720   0.000   0.000
0.00625   0.00225   293.094   1137.797   268.000   268.000   10.720   10.720   0.000   0.000
0.00875   0.00225   293.128   1137.797   268.000   268.000   10.720   10.720   0.000   0.000
0.01125   0.00225   293.180   1137.797   268.000   268.000   10.720   10.720   0.000   0.000
0.01375   0.00225   293.252   1137.797   268.000   268.000   10.720   10.720   0.000   0.000
0.01625   0.00225   293.352   1137.797   268.000   268.000   10.720   10.720   0.000   0.000
0.01875   0.00225   293.486   1137.797   268.000   268.000   10.720   10.720   0.000   0.000
0.02125   0.00225   293.663   1137.797   268.000   268.000   10.720   10.720   0.000   0.000
0.02375   0.00225   293.893   1137.797   268.000   268.000   10.720   10.720   0.000   0.000
0.02625   0.00225   294.187   1137.797   268.000   268.000   10.720   10.720   0.000   0.000
0.02875   0.00225   294.558   1137.797   268.000   268.000   10.720   10.720   0.000   0.000
0.03125   0.00225   295.017   1137.797   268.000   268.000   10.720   10.720   0.000   0.000
0.03375   0.00225   295.578   1137.797   268.000   268.000   10.720   10.720   0.000   0.000
0.03625   0.00225   296.255   1137.797   268.000   268.000   10.720   10.720   0.000   0.000
0.03875   0.00225   297.063   1137.797   268.000   268.000   10.720   10.720   0.000   0.000
0.04125   0.00225   298.016   1137.797   268.000   268.000   10.720   10.720   0.000   0.000
0.04375   0.00225   299.130   1137.797   268.000   268.000   10.720   10.720   0.000   0.000
0.04625   0.00225   300.414   1137.797   268.000   268.000   10.720   10.720   0.000   0.000
0.04875   0.00225   301.868   1137.797   268.000   268.000   10.720   0.000   0.000   16.272
0.00125   0.00175   293.062   1137.797   268.000   268.000   0.000   10.720   0.000   0.000
0.00375   0.00175   293.072   1137.797   268.000   268.000   10.720   10.720   0.000   0.000
0.00625   0.00175   293.094   1137.797   268.000   268.000   10.720   10.720   0.000   0.000
0.00875   0.00175   293.128   1137.797   268.000   268.000   10.720   10.720   0.000   0.000
0.01125   0.00175   293.180   1137.797   268.000   268.000   10.720   10.720   0.000   0.000
0.01375   0.00175   293.252   1137.797   268.000   268.000   10.720   10.720   0.000   0.000
0.01625   0.00175   293.352   1137.797   268.000   268.000   10.720   10.720   0.000   0.000
0.01875   0.00175   293.486   1137.797   268.000   268.000   10.720   10.720   0.000   0.000
0.02125   0.00175   293.663   1137.797   268.000   268.000   10.720   10.720   0.000   0.000