VARIABLES = X, Y, T, ap,an,as,aw,ae,sp,su
ZONE I=20,J=20, F=POINT,t="12.740"
0.00125   0.00975   293.985   1137.797   0.000   268.000   0.000   10.720   0.000   -0.001
0.00375   0.00975   294.092   1137.797   0.000   268.000   10.720   10.720   0.000   -0.001
0.00625   0.00975   294.314   1137.797   0.000   268.000   10.720   10.720   0.000   -0.001
0.00875   0.00975   294.663   1137.797   0.000   268.000   10.720   10.720   0.000   -0.001
0.01125   0.00975   295.159   1137.797   0.000   268.000   10.720   10.720   0.000   -0.002
0.01375   0.00975   295.829   1137.797   0.000   268.000   10.720   10.720   0.000   -0.002
0.01625   0.00975   296.706   1137.797   0.000   268.000   10.720   10.720   0.000   -0.003
0.01875   0.00975   297.829   1137.797   0.000   268.000   10.720   10.720   0.000   -0.004
0.02125   0.00975   299.243   1137.797   0.000   268.000   10.720   10.720   0.000   -0.005
0.02375   0.00975   301.002   1137.797   0.000   268.000   10.720   10.720   0.000   -0.006
0.02625   0.00975   303.170   1137.797   0.000   268.000   10.720   10.720   0.000   -0.008
0.02875   0.00975   305.852   1137.797   0.000   268.000   10.720   10.720   0.000   -0.010
0.03125   0.00975   309.493   1137.797   0.000   268.000   10.720   10.720   0.000   81.251
0.03375   0.00975   312.338   1137.797   0.000   268.000   10.720   10.720   0.000   81.210
0.03625   0.00975   314.827   1137.797   0.000   268.000   10.720   10.720   0.000   81.173
0.03875   0.00975   317.067   1137.797   0.000   268.000   10.720   10.720   0.000   81.140
0.04125   0.00975   319.116   1137.797   0.000   268.000   10.720   10.720   0.000   81.108
0.04375   0.00975   321.021   1137.797   0.000   268.000   10.720   10.720   0.000   81.079
0.04625   0.00975   322.810   1137.797   0.000   268.000   10.720   10.720   0.000   81.050
0.04875   0.00975   324.486   1137.797   0.000   268.000   10.720   0.000   0.000   97.232
0.00125   0.00925   293.984   1137.797   268.000   268.000   0.000   10.720   0.000   0.000
0.00375   0.00925   294.092   1137.797   268.000   268.000   10.720   10.720   0.000   0.000
0.00625   0.00925   294.313   1137.797   268.000   268.000   10.720   10.720   0.000   0.000
0.00875   0.00925   294.662   1137.797   268.000   268.000   10.720   10.720   0.000   0.000
0.01125   0.00925   295.159   1137.797   268.000   268.000   10.720   10.720   0.000   0.000
0.01375   0.00925   295.828   1137.797   268.000   268.000   10.720   10.720   0.000   0.000
0.01625   0.00925   296.705   1137.797   268.000   268.000   10.720   10.720   0.000   0.000
0.01875   0.00925   297.827   1137.797   268.000   268.000   10.720   10.720   0.000   0.000
0.02125   0.00925   299.242   1137.797   268.000   268.000   10.720   10.720   0.000   0.000
0.02375   0.00925   301.000   1137.797   268.000   268.000   10.720   10.720   0.000   0.000
0.02625   0.00925   303.165   1137.797   268.000   268.000   10.720   10.720   0.000   0.000
0.02875   0.00925   305.832   1137.797   268.000   268.000   10.720   10.720   0.000   0.000
0.03125   0.00925   309.242   1137.797   268.000   268.000   10.720   10.720   0.000   0.000
0.03375   0.00925   312.070   1137.797   268.000   268.000   10.720   10.720   0.000   0.000
0.03625   0.00925   314.557   1137.797   268.000   268.000   10.720   10.720   0.000   0.000
0.03875   0.00925   316.797   1137.797   268.000   268.000   10.720   10.720   0.000   0.000
0.04125   0.00925   318.846   1137.797   268.000   268.000   10.720   10.720   0.000   0.000
0.04375   0.00925   320.751   1137.797   268.000   268.000   10.720   10.720   0.000   0.000
0.04625   0.00925   322.541   1137.797   268.000   268.000   10.720   10.720   0.000   0.000
0.04875   0.00925   324.219   1137.797   268.000   268.000   10.720   0.000   0.000   16.210
0.00125   0.00875   293.983   1137.797   268.000   268.000   0.000   10.720   0.000   0.000
0.00375   0.00875   294.091   1137.797   268.000   268.000   10.720   10.720   0.000   0.000
0.00625   0.00875   294.313   1137.797   268.000   268.000   10.720   10.720   0.000   0.000
0.00875   0.00875   294.661   1137.797   268.000   268.000   10.720   10.720   0.000   0.000
0.01125   0.00875   295.157   1137.797   268.000   268.000   10.720   10.720   0.000   0.000
0.01375   0.00875   295.827   1137.797   268.000   268.000   10.720   10.720   0.000   0.000
0.01625   0.00875   296.703   1137.797   268.000   268.000   10.720   10.720   0.000   0.000
0.01875   0.00875   297.824   1137.797   268.000   268.000   10.720   10.720   0.000   0.000
0.02125   0.00875   299.238   1137.797   268.000   268.000   10.720   10.720   0.000   0.000
0.02375   0.00875   300.995   1137.797   268.000   268.000   10.720   10.720   0.000   0.000
0.02625   0.00875   303.156   1137.797   268.000   268.000   10.720   10.720   0.000   0.000
0.02875   0.00875   305.799   1137.797   268.000   268.000   10.720   10.720   0.000   0.000
0.03125   0.00875   309.033   1137.797   268.000   268.000   10.720   10.720   0.000   0.000
0.03375   0.00875   311.839   1137.797   268.000   268.000   10.720   10.720   0.000   0.000
0.03625   0.00875   314.322   1137.797   268.000   268.000   10.720   10.720   0.000   0.000
0.03875   0.00875   316.559   1137.797   268.000   268.000   10.720   10.720   0.000   0.000
0.04125   0.00875   318.608   1137.797   268.000   268.000   10.720   10.720   0.000   0.000
0.04375   0.00875   320.513   1137.797   268.000   268.000   10.720   10.720   0.000   0.000
0.04625   0.00875   322.304   1137.797   268.000   268.000   10.720   10.720   0.000   0.000
0.04875   0.00875   323.988   1137.797   268.000   268.000   10.720   0.000   0.000   16.211
0.00125   0.00825   293.982   1137.797   268.000   268.000   0.000   10.720   0.000   0.000
0.00375   0.00825   294.090   1137.797   268.000   268.000   10.720   10.720   0.000   0.000
0.00625   0.00825   294.311   1137.797   268.000   268.000   10.720   10.720   0.000   0.000
0.00875   0.00825   294.660   1137.797   268.000   268.000   10.720   10.720   0.000   0.000
0.01125   0.00825   295.155   1137.797   268.000   268.000   10.720   10.720   0.000   0.000
0.01375   0.00825   295.824   1137.797   268.000   268.000   10.720   10.720   0.000   0.000
0.01625   0.00825   296.699   1137.797   268.000   268.000   10.720   10.720   0.000   0.000
0.01875   0.00825   297.820   1137.797   268.000   268.000   10.720   10.720   0.000   0.000
0.02125   0.00825   299.233   1137.797   268.000   268.000   10.720   10.720   0.000   0.000
0.02375   0.00825   300.988   1137.797   268.000   268.000   10.720   10.720   0.000   0.000
0.02625   0.00825   303.143   1137.797   268.000   268.000   10.720   10.720   0.000   0.000
0.02875   0.00825   305.761   1137.797   268.000   268.000   10.720   10.720   0.000   0.000
0.03125   0.00825   308.862   1137.797   268.000   268.000   10.720   10.720   0.000   0.000
0.03375   0.00825   311.641   1137.797   268.000   268.000   10.720   10.720   0.000   0.000
0.03625   0.00825   314.119   1137.797   268.000   268.000   10.720   10.720   0.000   0.000
0.03875   0.00825   316.355   1137.797   268.000   268.000   10.720   10.720   0.000   0.000
0.04125   0.00825   318.403   1137.797   268.000   268.000   10.720   10.720   0.000   0.000
0.04375   0.00825   320.307   1137.797   268.000   268.000   10.720   10.720   0.000   0.000
0.04625   0.00825   322.101   1137.797   268.000   268.000   10.720   10.720   0.000   0.000
0.04875   0.00825   323.793   1137.797   268.000   268.000   10.720   0.000   0.000   16.211
0.00125   0.00775   293.981   1137.797   268.000   268.000   0.000   10.720   0.000   0.000
0.00375   0.00775   294.088   1137.797   268.000   268.000   10.720   10.720   0.000   0.000
0.00625   0.00775   294.309   1137.797   268.000   268.000   10.720   10.720   0.000   0.000
0.00875   0.00775   294.657   1137.797   268.000   268.000   10.720   10.720   0.000   0.000
0.01125   0.00775   295.152   1137.797   268.000   268.000   10.720   10.720   0.000   0.000
0.01375   0.00775   295.820   1137.797   268.000   268.000   10.720   10.720   0.000   0.000
0.01625   0.00775   296.695   1137.797   268.000   268.000   10.720   10.720   0.000   0.000
0.01875   0.00775   297.815   1137.797   268.000   268.000   10.720   10.720   0.000   0.000
0.02125   0.00775   299.225   1137.797   268.000   268.000   10.720   10.720   0.000   0.000
0.02375   0.00775   300.978   1137.797   268.000   268.000   10.720   10.720   0.000   0.000
0.02625   0.00775   303.127   1137.797   268.000   268.000   10.720   10.720   0.000   0.000
0.02875   0.00775   305.721   1137.797   268.000   268.000   10.720   10.720   0.000   0.000
0.03125   0.00775   308.723   1137.797   268.000   268.000   10.720   10.720   0.000   0.000
0.03375   0.00775   311.478   1137.797   268.000   268.000   10.720   10.720   0.000   0.000
0.03625   0.00775   313.950   1137.797   268.000   268.000   10.720   10.720   0.000   0.000
0.03875   0.00775   316.183   1137.797   268.000   268.000   10.720   10.720   0.000   0.000
0.04125   0.00775   318.230   1137.797   268.000   268.000   10.720   10.720   0.000   0.000
0.04375   0.00775   320.133   1137.797   268.000   268.000   10.720   10.720   0.000   0.000
0.04625   0.00775   321.930   1137.797   268.000   268.000   10.720   10.720   0.000   0.000
0.04875   0.00775   323.633   1137.797   268.000   268.000   10.720   0.000   0.000   16.212
0.00125   0.00725   293.979   1137.797   268.000   268.000   0.000   10.720   0.000   0.000
0.00375   0.00725   294.086   1137.797   268.000   268.000   10.720   10.720   0.000   0.000
0.00625   0.00725   294.307   1137.797   268.000   268.000   10.720   10.720   0.000   0.000
0.00875   0.00725   294.654   1137.797   268.000   268.000   10.720   10.720   0.000   0.000
0.01125   0.00725   295.149   1137.797   268.000   268.000   10.720   10.720   0.000   0.000
0.01375   0.00725   295.816   1137.797   268.000   268.000   10.720   10.720   0.000   0.000
0.01625   0.00725   296.689   1137.797   268.000   268.000   10.720   10.720   0.000   0.000
0.01875   0.00725   297.807   1137.797   268.000   268.000   10.720   10.720   0.000   0.000
0.02125   0.00725   299.216   1137.797   268.000   268.000   10.720   10.720   0.000   0.000
0.02375   0.00725   300.967   1137.797   268.000   268.000   10.720   10.720   0.000   0.000
0.02625   0.00725   303.110   1137.797   268.000   268.000   10.720   10.720   0.000   0.000
0.02875   0.00725   305.683   1137.797   268.000   268.000   10.720   10.720   0.000   0.000
0.03125   0.00725   308.613   1137.797   268.000   268.000   10.720   10.720   0.000   0.000
0.03375   0.00725   311.348   1137.797   268.000   268.000   10.720   10.720   0.000   0.000
0.03625   0.00725   313.813   1137.797   268.000   268.000   10.720   10.720   0.000   0.000
0.03875   0.00725   316.044   1137.797   268.000   268.000   10.720   10.720   0.000   0.000
0.04125   0.00725   318.089   1137.797   268.000   268.000   10.720   10.720   0.000   0.000
0.04375   0.00725   319.992   1137.797   268.000   268.000   10.720   10.720   0.000   0.000
0.04625   0.00725   321.791   1137.797   268.000   268.000   10.720   10.720   0.000   0.000
0.04875   0.00725   323.510   1137.797   268.000   268.000   10.720   0.000   0.000   16.212
0.00125   0.00675   293.977   1137.797   268.000   268.000   0.000   10.720   0.000   0.000
0.00375   0.00675   294.084   1137.797   268.000   268.000   10.720   10.720   0.000   0.000
0.00625   0.00675   294.304   1137.797   268.000   268.000   10.720   10.720   0.000   0.000
0.00875   0.00675   294.651   1137.797   268.000   268.000   10.720   10.720   0.000   0.000
0.01125   0.00675   295.144   1137.797   268.000   268.000   10.720   10.720   0.000   0.000
0.01375   0.00675   295.811   1137.797   268.000   268.000   10.720   10.720   0.000   0.000
0.01625   0.00675   296.682   1137.797   268.000   268.000   10.720   10.720   0.000   0.000
0.01875   0.00675   297.799   1137.797   268.000   268.000   10.720   10.720   0.000   0.000
0.02125   0.00675   299.206   1137.797   268.000   268.000   10.720   10.720   0.000   0.000
0.02375   0.00675   300.953   1137.797   268.000   268.000   10.720   10.720   0.000   0.000
0.02625   0.00675   303.091   1137.797   268.000   268.000   10.720   10.720   0.000   0.000
0.02875   0.00675   305.648   1137.797   268.000   268.000   10.720   10.720   0.000   0.000
0.03125   0.00675   308.531   1137.797   268.000   268.000   10.720   10.720   0.000   0.000
0.03375   0.00675   311.250   1137.797   268.000   268.000   10.720   10.720   0.000   0.000
0.03625   0.00675   313.710   1137.797   268.000   268.000   10.720   10.720   0.000   0.000
0.03875   0.00675   315.938   1137.797   268.000   268.000   10.720   10.720   0.000   0.000
0.04125   0.00675   317.980   1137.797   268.000   268.000   10.720   10.720   0.000   0.000
0.04375   0.00675   319.882   1137.797   268.000   268.000   10.720   10.720   0.000   0.000
0.04625   0.00675   321.684   1137.797   268.000   268.000   10.720   10.720   0.000   0.000
0.04875   0.00675   323.424   1137.797   268.000   268.000   10.720   0.000   0.000   16.213
0.00125   0.00625   293.974   1137.797   268.000   2.085   0.000   10.720   0.000   0.000
0.00375   0.00625   294.081   1137.797   268.000   2.085   10.720   10.720   0.000   0.000
0.00625   0.00625   294.301   1137.797   268.000   2.085   10.720   10.720   0.000   0.000
0.00875   0.00625   294.647   1137.797   268.000   2.085   10.720   10.720   0.000   0.000
0.01125   0.00625   295.139   1137.797   268.000   2.085   10.720   10.720   0.000   0.000
0.01375   0.00625   295.804   1137.797   268.000   2.085   10.720   10.720   0.000   0.000
0.01625   0.00625   296.674   1137.797   268.000   2.085   10.720   10.720   0.000   0.000
0.01875   0.00625   297.789   1137.797   268.000   2.085   10.720   10.720   0.000   0.000
0.02125   0.00625   299.193   1137.797   268.000   2.085   10.720   10.720   0.000   0.000
0.02375   0.00625   300.938   1137.797   268.000   2.085   10.720   10.720   0.000   0.000
0.02625   0.00625   303.071   1137.797   268.000   2.085   10.720   10.720   0.000   0.000
0.02875   0.00625   305.617   1137.797   268.000   2.085   10.720   10.720   0.000   0.000
0.03125   0.00625   308.476   1137.797   268.000   2.085   10.720   10.720   0.000   0.000
0.03375   0.00625   311.184   1137.797   268.000   2.085   10.720   10.720   0.000   0.000
0.03625   0.00625   313.639   1137.797   268.000   2.085   10.720   10.720   0.000   0.000
0.03875   0.00625   315.864   1137.797   268.000   2.085   10.720   10.720   0.000   0.000
0.04125   0.00625   317.904   1137.797   268.000   2.085   10.720   10.720   0.000   0.000
0.04375   0.00625   319.804   1137.797   268.000   2.085   10.720   10.720   0.000   0.000
0.04625   0.00625   321.608   1137.797   268.000   2.085   10.720   10.720   0.000   0.000
0.04875   0.00625   323.377   1137.797   268.000   2.085   10.720   0.000   0.000   16.213
0.00125   0.00575   293.593   686.719   2.085   1.046   0.000   0.042   0.000   0.000
0.00375   0.00575   293.666   686.719   2.085   1.046   0.042   0.042   0.000   0.000
0.00625   0.00575   293.818   686.719   2.085   1.046   0.042   0.042   0.000   0.000
0.00875   0.00575   294.059   686.719   2.085   1.046   0.042   0.042   0.000   0.000
0.01125   0.00575   294.406   686.719   2.085   1.046   0.042   0.042   0.000   0.000
0.01375   0.00575   294.881   686.719   2.085   1.046   0.042   0.042   0.000   0.000
0.01625   0.00575   295.513   686.719   2.085   1.046   0.042   0.042   0.000   0.000
0.01875   0.00575   296.335   686.719   2.085   1.046   0.042   0.042   0.000   0.000
0.02125   0.00575   297.389   686.719   2.085   1.046   0.042   0.042   0.000   0.000
0.02375   0.00575   298.720   686.719   2.085   1.046   0.042   0.042   0.000   0.000
0.02625   0.00575   300.373   686.719   2.085   1.046   0.042   0.042   0.000   0.000
0.02875   0.00575   302.374   686.719   2.085   1.046   0.042   0.042   0.000   0.000
0.03125   0.00575   304.638   686.719   2.085   1.046   0.042   0.042   0.000   0.000
0.03375   0.00575   306.791   686.719   2.085   1.046   0.042   0.042   0.000   0.000
0.03625   0.00575   308.751   686.719   2.085   1.046   0.042   0.042   0.000   0.000
0.03875   0.00575   310.544   686.719   2.085   1.046   0.042   0.042   0.000   0.000
0.04125   0.00575   312.219   686.719   2.085   1.046   0.042   0.042   0.000   0.000
0.04375   0.00575   313.833   686.719   2.085   1.046   0.042   0.042   0.000   0.000
0.04625   0.00575   315.645   686.719   2.085   1.046   0.042   0.042   0.000   0.000
0.04875   0.00575   322.275   686.719   2.085   1.046   0.042   0.000   0.000   6.081
0.00125   0.00525   293.246   686.719   1.046   1.046   0.000   0.042   0.000   0.000
0.00375   0.00525   293.282   686.719   1.046   1.046   0.042   0.042   0.000   0.000
0.00625   0.00525   293.357   686.719   1.046   1.046   0.042   0.042   0.000   0.000
0.00875   0.00525   293.478   686.719   1.046   1.046   0.042   0.042   0.000   0.000
0.01125   0.00525   293.655   686.719   1.046   1.046   0.042   0.042   0.000   0.000
0.01375   0.00525   293.905   686.719   1.046   1.046   0.042   0.042   0.000   0.000
0.01625   0.00525   294.245   686.719   1.046   1.046   0.042   0.042   0.000   0.000
0.01875   0.00525   294.701   686.719   1.046   1.046   0.042   0.042   0.000   0.000
0.02125   0.00525   295.300   686.719   1.046   1.046   0.042   0.042   0.000   0.000
0.02375   0.00525   296.079   686.719   1.046   1.046   0.042   0.042   0.000   0.000
0.02625   0.00525   297.072   686.719   1.046   1.046   0.042   0.042   0.000   0.000
0.02875   0.00525   298.303   686.719   1.046   1.046   0.042   0.042   0.000   0.000
0.03125   0.00525   299.718   686.719   1.046   1.046   0.042   0.042   0.000   0.000
0.03375   0.00525   301.087   686.719   1.046   1.046   0.042   0.042   0.000   0.000
0.03625   0.00525   302.361   686.719   1.046   1.046   0.042   0.042   0.000   0.000
0.03875   0.00525   303.570   686.719   1.046   1.046   0.042   0.042   0.000   0.000
0.04125   0.00525   304.760   686.719   1.046   1.046   0.042   0.042   0.000   0.000
0.04375   0.00525   306.003   686.719   1.046   1.046   0.042   0.042   0.000   0.000
0.04625   0.00525   307.822   686.719   1.046   1.046   0.042   0.042   0.000   0.000
0.04875   0.00525   318.994   686.719   1.046   1.046   0.042   0.000   0.000   6.085
0.00125   0.00475   293.103   686.719   1.046   1.046   0.000   0.042   0.000   0.000
0.00375   0.00475   293.120   686.719   1.046   1.046   0.042   0.042   0.000   0.000
0.00625   0.00475   293.157   686.719   1.046   1.046   0.042   0.042   0.000   0.000
0.00875   0.00475   293.217   686.719   1.046   1.046   0.042   0.042   0.000   0.000
0.01125   0.00475   293.308   686.719   1.046   1.046   0.042   0.042   0.000   0.000
0.01375   0.00475   293.437   686.719   1.046   1.046   0.042   0.042   0.000   0.000
0.01625   0.00475   293.619   686.719   1.046   1.046   0.042   0.042   0.000   0.000
0.01875   0.00475   293.868   686.719   1.046   1.046   0.042   0.042   0.000   0.000
0.02125   0.00475   294.203   686.719   1.046   1.046   0.042   0.042   0.000   0.000
0.02375   0.00475   294.650   686.719   1.046   1.046   0.042   0.042   0.000   0.000
0.02625   0.00475   295.232   686.719   1.046   1.046   0.042   0.042   0.000   0.000
0.02875   0.00475   295.970   686.719   1.046   1.046   0.042   0.042   0.000   0.000
0.03125   0.00475   296.839   686.719   1.046   1.046   0.042   0.042   0.000   0.000
0.03375   0.00475   297.720   686.719   1.046   1.046   0.042   0.042   0.000   0.000
0.03625   0.00475   298.593   686.719   1.046   1.046   0.042   0.042   0.000   0.000
0.03875   0.00475   299.487   686.719   1.046   1.046   0.042   0.042   0.000   0.000
0.04125   0.00475   300.439   686.719   1.046   1.046   0.042   0.042   0.000   0.000
0.04375   0.00475   301.510   686.719   1.046   1.046   0.042   0.042   0.000   0.000
0.04625   0.00475   303.220   686.719   1.046   1.046   0.042   0.042   0.000   0.000
0.04875   0.00475   314.342   686.719   1.046   1.046   0.042   0.000   0.000   6.090
0.00125   0.00425   293.059   686.719   1.046   2.085   0.000   0.042   0.000   0.000
0.00375   0.00425   293.070   686.719   1.046   2.085   0.042   0.042   0.000   0.000
0.00625   0.00425   293.092   686.719   1.046   2.085   0.042   0.042   0.000   0.000
0.00875   0.00425   293.129   686.719   1.046   2.085   0.042   0.042   0.000   0.000
0.01125   0.00425   293.184   686.719   1.046   2.085   0.042   0.042   0.000   0.000
0.01375   0.00425   293.264   686.719   1.046   2.085   0.042   0.042   0.000   0.000
0.01625   0.00425   293.375   686.719   1.046   2.085   0.042   0.042   0.000   0.000
0.01875   0.00425   293.528   686.719   1.046   2.085   0.042   0.042   0.000   0.000
0.02125   0.00425   293.734   686.719   1.046   2.085   0.042   0.042   0.000   0.000
0.02375   0.00425   294.009   686.719   1.046   2.085   0.042   0.042   0.000   0.000
0.02625   0.00425   294.366   686.719   1.046   2.085   0.042   0.042   0.000   0.000
0.02875   0.00425   294.823   686.719   1.046   2.085   0.042   0.042   0.000   0.000
0.03125   0.00425   295.378   686.719   1.046   2.085   0.042   0.042   0.000   0.000
0.03375   0.00425   296.005   686.719   1.046   2.085   0.042   0.042   0.000   0.000
0.03625   0.00425   296.707   686.719   1.046   2.085   0.042   0.042   0.000   0.000
0.03875   0.00425   297.504   686.719   1.046   2.085   0.042   0.042   0.000   0.000
0.04125   0.00425   298.420   686.719   1.046   2.085   0.042   0.042   0.000   0.000
0.04375   0.00425   299.489   686.719   1.046   2.085   0.042   0.042   0.000   0.000
0.04625   0.00425   300.949   686.719   1.046   2.085   0.042   0.042   0.000   0.000
0.04875   0.00425   307.415   686.719   1.046   2.085   0.042   0.000   0.000   6.097
0.00125   0.00375   293.069   1137.797   2.085   268.000   0.000   10.720   0.000   0.000
0.00375   0.00375   293.080   1137.797   2.085   268.000   10.720   10.720   0.000   0.000
0.00625   0.00375   293.103   1137.797   2.085   268.000   10.720   10.720   0.000   0.000
0.00875   0.00375   293.140   1137.797   2.085   268.000   10.720   10.720   0.000   0.000
0.01125   0.00375   293.194   1137.797   2.085   268.000   10.720   10.720   0.000   0.000
0.01375   0.00375   293.271   1137.797   2.085   268.000   10.720   10.720   0.000   0.000
0.01625   0.00375   293.376   1137.797   2.085   268.000   10.720   10.720   0.000   0.000
0.01875   0.00375   293.516   1137.797   2.085   268.000   10.720   10.720   0.000   0.000
0.02125   0.00375   293.701   1137.797   2.085   268.000   10.720   10.720   0.000   0.000
0.02375   0.00375   293.940   1137.797   2.085   268.000   10.720   10.720   0.000   0.000
0.02625   0.00375   294.244   1137.797   2.085   268.000   10.720   10.720   0.000   0.000
0.02875   0.00375   294.625   1137.797   2.085   268.000   10.720   10.720   0.000   0.000
0.03125   0.00375   295.096   1137.797   2.085   268.000   10.720   10.720   0.000   0.000
0.03375   0.00375   295.668   1137.797   2.085   268.000   10.720   10.720   0.000   0.000
0.03625   0.00375   296.356   1137.797   2.085   268.000   10.720   10.720   0.000   0.000
0.03875   0.00375   297.173   1137.797   2.085   268.000   10.720   10.720   0.000   0.000
0.04125   0.00375   298.135   1137.797   2.085   268.000   10.720   10.720   0.000   0.000
0.04375   0.00375   299.256   1137.797   2.085   268.000   10.720   10.720   0.000   0.000
0.04625   0.00375   300.555   1137.797   2.085   268.000   10.720   10.720   0.000   0.000
0.04875   0.00375   302.079   1137.797   2.085   268.000   10.720   0.000   0.000   16.272
0.00125   0.00325   293.069   1137.797   268.000   268.000   0.000   10.720   0.000   0.000
0.00375   0.00325   293.080   1137.797   268.000   268.000   10.720   10.720   0.000   0.000
0.00625   0.00325   293.103   1137.797   268.000   268.000   10.720   10.720   0.000   0.000
0.00875   0.00325   293.140   1137.797   268.000   268.000   10.720   10.720   0.000   0.000
0.01125   0.00325   293.194   1137.797   268.000   268.000   10.720   10.720   0.000   0.000
0.01375   0.00325   293.271   1137.797   268.000   268.000   10.720   10.720   0.000   0.000
0.01625   0.00325   293.376   1137.797   268.000   268.000   10.720   10.720   0.000   0.000
0.01875   0.00325   293.516   1137.797   268.000   268.000   10.720   10.720   0.000   0.000
0.02125   0.00325   293.701   1137.797   268.000   268.000   10.720   10.720   0.000   0.000
0.02375   0.00325   293.939   1137.797   268.000   268.000   10.720   10.720   0.000   0.000
0.02625   0.00325   294.243   1137.797   268.000   268.000   10.720   10.720   0.000   0.000
0.02875   0.00325   294.624   1137.797   268.000   268.000   10.720   10.720   0.000   0.000
0.03125   0.00325   295.094   1137.797   268.000   268.000   10.720   10.720   0.000   0.000
0.03375   0.00325   295.666   1137.797   268.000   268.000   10.720   10.720   0.000   0.000
0.03625   0.00325   296.354   1137.797   268.000   268.000   10.720   10.720   0.000   0.000
0.03875   0.00325   297.171   1137.797   268.000   268.000   10.720   10.720   0.000   0.000
0.04125   0.00325   298.133   1137.797   268.000   268.000   10.720   10.720   0.000   0.000
0.04375   0.00325   299.254   1137.797   268.000   268.000   10.720   10.720   0.000   0.000
0.04625   0.00325   300.550   1137.797   268.000   268.000   10.720   10.720   0.000   0.000
0.04875   0.00325   302.045   1137.797   268.000   268.000   10.720   0.000   0.000   16.272
0.00125   0.00275   293.069   1137.797   268.000   268.000   0.000   10.720   0.000   0.000
0.00375   0.00275   293.080   1137.797   268.000   268.000   10.720   10.720   0.000   0.000
0.00625   0.00275   293.103   1137.797   268.000   268.000   10.720   10.720   0.000   0.000
0.00875   0.00275   293.140   1137.797   268.000   268.000   10.720   10.720   0.000   0.000
0.01125   0.00275   293.194   1137.797   268.000   268.000   10.720   10.720   0.000   0.000
0.01375   0.00275   293.271   1137.797   268.000   268.000   10.720   10.720   0.000   0.000
0.01625   0.00275   293.376   1137.797   268.000   268.000   10.720   10.720   0.000   0.000
0.01875   0.00275   293.516   1137.797   268.000   268.000   10.720   10.720   0.000   0.000
0.02125   0.00275   293.701   1137.797   268.000   268.000   10.720   10.720   0.000   0.000
0.02375   0.00275   293.939   1137.797   268.000   268.000   10.720   10.720   0.000   0.000
0.02625   0.00275   294.243   1137.797   268.000   268.000   10.720   10.720   0.000   0.000
0.02875   0.00275   294.623   1137.797   268.000   268.000   10.720   10.720   0.000   0.000
0.03125   0.00275   295.093   1137.797   268.000   268.000   10.720   10.720   0.000   0.000
0.03375   0.00275   295.664   1137.797   268.000   268.000   10.720   10.720   0.000   0.000
0.03625   0.00275   296.352   1137.797   268.000   268.000   10.720   10.720   0.000   0.000
0.03875   0.00275   297.169   1137.797   268.000   268.000   10.720   10.720   0.000   0.000
0.04125   0.00275   298.131   1137.797   268.000   268.000   10.720   10.720   0.000   0.000
0.04375   0.00275   299.252   1137.797   268.000   268.000   10.720   10.720   0.000   0.000
0.04625   0.00275   300.545   1137.797   268.000   268.000   10.720   10.720   0.000   0.000
0.04875   0.00275   302.018   1137.797   268.000   268.000   10.720   0.000   0.000   16.272
0.00125   0.00225   293.069   1137.797   268.000   268.000   0.000   10.720   0.000   0.000
0.00375   0.00225   293.080   1137.797   268.000   268.000   10.720   10.720   0.000   0.000
0.00625   0.00225   293.103   1137.797   268.000   268.000   10.720   10.720   0.000   0.000
0.00875   0.00225   293.140   1137.797   268.000   268.000   10.720   10.720   0.000   0.000
0.01125   0.00225   293.194   1137.797   268.000   268.000   10.720   10.720   0.000   0.000
0.01375   0.00225   293.271   1137.797   268.000   268.000   10.720   10.720   0.000   0.000
0.01625   0.00225   293.376   1137.797   268.000   268.000   10.720   10.720   0.000   0.000
0.01875   0.00225   293.516   1137.797   268.000   268.000   10.720   10.720   0.000   0.000
0.02125   0.00225   293.701   1137.797   268.000   268.000   10.720   10.720   0.000   0.000
0.02375   0.00225   293.939   1137.797   268.000   268.000   10.720   10.720   0.000   0.000
0.02625   0.00225   294.242   1137.797   268.000   268.000   10.720   10.720   0.000   0.000
0.02875   0.00225   294.622   1137.797   268.000   268.000   10.720   10.720   0.000   0.000
0.03125   0.00225   295.091   1137.797   268.000   268.000   10.720   10.720   0.000   0.000
0.03375   0.00225   295.663   1137.797   268.000   268.000   10.720   10.720   0.000   0.000
0.03625   0.00225   296.350   1137.797   268.000   268.000   10.720   10.720   0.000   0.000
0.03875   0.00225   297.168   1137.797   268.000   268.000   10.720   10.720   0.000   0.000
0.04125   0.00225   298.130   1137.797   268.000   268.000   10.720   10.720   0.000   0.000
0.04375   0.00225   299.250   1137.797   268.000   268.000   10.720   10.720   0.000   0.000
0.04625   0.00225   300.539   1137.797   268.000   268.000   10.720   10.720   0.000   0.000
0.04875   0.00225   301.996   1137.797   268.000   268.000   10.720   0.000   0.000   16.272
0.00125   0.00175   293.069   1137.797   268.000   268.000   0.000   10.720   0.000   0.000
0.00375   0.00175   293.080   1137.797   268.000   268.000   10.720   10.720   0.000   0.000
0.00625   0.00175   293.103   1137.797   268.000   268.000   10.720   10.720   0.000   0.000
0.00875   0.00175   293.140   1137.797   268.000   268.000   10.720   10.720   0.000   0.000
0.01125   0.00175   293.195   1137.797   268.000   268.000   10.720   10.720   0.000   0.000
0.01375   0.00175   293.271   1137.797   268.000   268.000   10.720   10.720   0.000   0.000
0.01625   0.00175   293.376   1137.797   268.000   268.000   10.720   10.720   0.000   0.000
0.01875   0.00175   293.516   1137.797   268.000   268.000   10.720   10.720   0.000   0.000
0.02125   0.00175   293.700   1137.797   268.000   268.000   10.720   10.720   0.000   0.000