VARIABLES = X, Y, T, ap,an,as,aw,ae,sp,su
ZONE I=20,J=20, F=POINT,t="10.928"
0.00125   0.00975   293.612   1137.797   0.000   268.000   0.000   10.720   0.000   -0.000
0.00375   0.00975   293.694   1137.797   0.000   268.000   10.720   10.720   0.000   -0.001
0.00625   0.00975   293.866   1137.797   0.000   268.000   10.720   10.720   0.000   -0.001
0.00875   0.00975   294.141   1137.797   0.000   268.000   10.720   10.720   0.000   -0.001
0.01125   0.00975   294.538   1137.797   0.000   268.000   10.720   10.720   0.000   -0.001
0.01375   0.00975   295.084   1137.797   0.000   268.000   10.720   10.720   0.000   -0.002
0.01625   0.00975   295.813   1137.797   0.000   268.000   10.720   10.720   0.000   -0.002
0.01875   0.00975   296.766   1137.797   0.000   268.000   10.720   10.720   0.000   -0.003
0.02125   0.00975   297.991   1137.797   0.000   268.000   10.720   10.720   0.000   -0.004
0.02375   0.00975   299.543   1137.797   0.000   268.000   10.720   10.720   0.000   -0.005
0.02625   0.00975   301.491   1137.797   0.000   268.000   10.720   10.720   0.000   -0.006
0.02875   0.00975   303.947   1137.797   0.000   268.000   10.720   10.720   0.000   -0.008
0.03125   0.00975   307.361   1137.797   0.000   268.000   10.720   10.720   0.000   81.281
0.03375   0.00975   309.982   1137.797   0.000   268.000   10.720   10.720   0.000   81.244
0.03625   0.00975   312.262   1137.797   0.000   268.000   10.720   10.720   0.000   81.211
0.03875   0.00975   314.312   1137.797   0.000   268.000   10.720   10.720   0.000   81.181
0.04125   0.00975   316.198   1137.797   0.000   268.000   10.720   10.720   0.000   81.153
0.04375   0.00975   317.973   1137.797   0.000   268.000   10.720   10.720   0.000   81.126
0.04625   0.00975   319.672   1137.797   0.000   268.000   10.720   10.720   0.000   81.100
0.04875   0.00975   321.301   1137.797   0.000   268.000   10.720   0.000   0.000   97.293
0.00125   0.00925   293.611   1137.797   268.000   268.000   0.000   10.720   0.000   0.000
0.00375   0.00925   293.694   1137.797   268.000   268.000   10.720   10.720   0.000   0.000
0.00625   0.00925   293.866   1137.797   268.000   268.000   10.720   10.720   0.000   0.000
0.00875   0.00925   294.141   1137.797   268.000   268.000   10.720   10.720   0.000   0.000
0.01125   0.00925   294.537   1137.797   268.000   268.000   10.720   10.720   0.000   0.000
0.01375   0.00925   295.083   1137.797   268.000   268.000   10.720   10.720   0.000   0.000
0.01625   0.00925   295.812   1137.797   268.000   268.000   10.720   10.720   0.000   0.000
0.01875   0.00925   296.765   1137.797   268.000   268.000   10.720   10.720   0.000   0.000
0.02125   0.00925   297.989   1137.797   268.000   268.000   10.720   10.720   0.000   0.000
0.02375   0.00925   299.541   1137.797   268.000   268.000   10.720   10.720   0.000   0.000
0.02625   0.00925   301.486   1137.797   268.000   268.000   10.720   10.720   0.000   0.000
0.02875   0.00925   303.927   1137.797   268.000   268.000   10.720   10.720   0.000   0.000
0.03125   0.00925   307.109   1137.797   268.000   268.000   10.720   10.720   0.000   0.000
0.03375   0.00925   309.715   1137.797   268.000   268.000   10.720   10.720   0.000   0.000
0.03625   0.00925   311.993   1137.797   268.000   268.000   10.720   10.720   0.000   0.000
0.03875   0.00925   314.042   1137.797   268.000   268.000   10.720   10.720   0.000   0.000
0.04125   0.00925   315.928   1137.797   268.000   268.000   10.720   10.720   0.000   0.000
0.04375   0.00925   317.703   1137.797   268.000   268.000   10.720   10.720   0.000   0.000
0.04625   0.00925   319.403   1137.797   268.000   268.000   10.720   10.720   0.000   0.000
0.04875   0.00925   321.034   1137.797   268.000   268.000   10.720   0.000   0.000   16.220
0.00125   0.00875   293.611   1137.797   268.000   268.000   0.000   10.720   0.000   0.000
0.00375   0.00875   293.694   1137.797   268.000   268.000   10.720   10.720   0.000   0.000
0.00625   0.00875   293.865   1137.797   268.000   268.000   10.720   10.720   0.000   0.000
0.00875   0.00875   294.140   1137.797   268.000   268.000   10.720   10.720   0.000   0.000
0.01125   0.00875   294.536   1137.797   268.000   268.000   10.720   10.720   0.000   0.000
0.01375   0.00875   295.082   1137.797   268.000   268.000   10.720   10.720   0.000   0.000
0.01625   0.00875   295.810   1137.797   268.000   268.000   10.720   10.720   0.000   0.000
0.01875   0.00875   296.762   1137.797   268.000   268.000   10.720   10.720   0.000   0.000
0.02125   0.00875   297.986   1137.797   268.000   268.000   10.720   10.720   0.000   0.000
0.02375   0.00875   299.536   1137.797   268.000   268.000   10.720   10.720   0.000   0.000
0.02625   0.00875   301.478   1137.797   268.000   268.000   10.720   10.720   0.000   0.000
0.02875   0.00875   303.895   1137.797   268.000   268.000   10.720   10.720   0.000   0.000
0.03125   0.00875   306.901   1137.797   268.000   268.000   10.720   10.720   0.000   0.000
0.03375   0.00875   309.484   1137.797   268.000   268.000   10.720   10.720   0.000   0.000
0.03625   0.00875   311.757   1137.797   268.000   268.000   10.720   10.720   0.000   0.000
0.03875   0.00875   313.805   1137.797   268.000   268.000   10.720   10.720   0.000   0.000
0.04125   0.00875   315.691   1137.797   268.000   268.000   10.720   10.720   0.000   0.000
0.04375   0.00875   317.465   1137.797   268.000   268.000   10.720   10.720   0.000   0.000
0.04625   0.00875   319.166   1137.797   268.000   268.000   10.720   10.720   0.000   0.000
0.04875   0.00875   320.803   1137.797   268.000   268.000   10.720   0.000   0.000   16.221
0.00125   0.00825   293.610   1137.797   268.000   268.000   0.000   10.720   0.000   0.000
0.00375   0.00825   293.693   1137.797   268.000   268.000   10.720   10.720   0.000   0.000
0.00625   0.00825   293.864   1137.797   268.000   268.000   10.720   10.720   0.000   0.000
0.00875   0.00825   294.138   1137.797   268.000   268.000   10.720   10.720   0.000   0.000
0.01125   0.00825   294.535   1137.797   268.000   268.000   10.720   10.720   0.000   0.000
0.01375   0.00825   295.080   1137.797   268.000   268.000   10.720   10.720   0.000   0.000
0.01625   0.00825   295.807   1137.797   268.000   268.000   10.720   10.720   0.000   0.000
0.01875   0.00825   296.758   1137.797   268.000   268.000   10.720   10.720   0.000   0.000
0.02125   0.00825   297.981   1137.797   268.000   268.000   10.720   10.720   0.000   0.000
0.02375   0.00825   299.530   1137.797   268.000   268.000   10.720   10.720   0.000   0.000
0.02625   0.00825   301.466   1137.797   268.000   268.000   10.720   10.720   0.000   0.000
0.02875   0.00825   303.857   1137.797   268.000   268.000   10.720   10.720   0.000   0.000
0.03125   0.00825   306.730   1137.797   268.000   268.000   10.720   10.720   0.000   0.000
0.03375   0.00825   309.287   1137.797   268.000   268.000   10.720   10.720   0.000   0.000
0.03625   0.00825   311.555   1137.797   268.000   268.000   10.720   10.720   0.000   0.000
0.03875   0.00825   313.601   1137.797   268.000   268.000   10.720   10.720   0.000   0.000
0.04125   0.00825   315.486   1137.797   268.000   268.000   10.720   10.720   0.000   0.000
0.04375   0.00825   317.260   1137.797   268.000   268.000   10.720   10.720   0.000   0.000
0.04625   0.00825   318.963   1137.797   268.000   268.000   10.720   10.720   0.000   0.000
0.04875   0.00825   320.607   1137.797   268.000   268.000   10.720   0.000   0.000   16.221
0.00125   0.00775   293.609   1137.797   268.000   268.000   0.000   10.720   0.000   0.000
0.00375   0.00775   293.692   1137.797   268.000   268.000   10.720   10.720   0.000   0.000
0.00625   0.00775   293.863   1137.797   268.000   268.000   10.720   10.720   0.000   0.000
0.00875   0.00775   294.137   1137.797   268.000   268.000   10.720   10.720   0.000   0.000
0.01125   0.00775   294.532   1137.797   268.000   268.000   10.720   10.720   0.000   0.000
0.01375   0.00775   295.077   1137.797   268.000   268.000   10.720   10.720   0.000   0.000
0.01625   0.00775   295.803   1137.797   268.000   268.000   10.720   10.720   0.000   0.000
0.01875   0.00775   296.754   1137.797   268.000   268.000   10.720   10.720   0.000   0.000
0.02125   0.00775   297.975   1137.797   268.000   268.000   10.720   10.720   0.000   0.000
0.02375   0.00775   299.521   1137.797   268.000   268.000   10.720   10.720   0.000   0.000
0.02625   0.00775   301.451   1137.797   268.000   268.000   10.720   10.720   0.000   0.000
0.02875   0.00775   303.818   1137.797   268.000   268.000   10.720   10.720   0.000   0.000
0.03125   0.00775   306.592   1137.797   268.000   268.000   10.720   10.720   0.000   0.000
0.03375   0.00775   309.125   1137.797   268.000   268.000   10.720   10.720   0.000   0.000
0.03625   0.00775   311.386   1137.797   268.000   268.000   10.720   10.720   0.000   0.000
0.03875   0.00775   313.430   1137.797   268.000   268.000   10.720   10.720   0.000   0.000
0.04125   0.00775   315.313   1137.797   268.000   268.000   10.720   10.720   0.000   0.000
0.04375   0.00775   317.087   1137.797   268.000   268.000   10.720   10.720   0.000   0.000
0.04625   0.00775   318.792   1137.797   268.000   268.000   10.720   10.720   0.000   0.000
0.04875   0.00775   320.448   1137.797   268.000   268.000   10.720   0.000   0.000   16.222
0.00125   0.00725   293.608   1137.797   268.000   268.000   0.000   10.720   0.000   0.000
0.00375   0.00725   293.690   1137.797   268.000   268.000   10.720   10.720   0.000   0.000
0.00625   0.00725   293.861   1137.797   268.000   268.000   10.720   10.720   0.000   0.000
0.00875   0.00725   294.135   1137.797   268.000   268.000   10.720   10.720   0.000   0.000
0.01125   0.00725   294.530   1137.797   268.000   268.000   10.720   10.720   0.000   0.000
0.01375   0.00725   295.073   1137.797   268.000   268.000   10.720   10.720   0.000   0.000
0.01625   0.00725   295.799   1137.797   268.000   268.000   10.720   10.720   0.000   0.000
0.01875   0.00725   296.748   1137.797   268.000   268.000   10.720   10.720   0.000   0.000
0.02125   0.00725   297.967   1137.797   268.000   268.000   10.720   10.720   0.000   0.000
0.02375   0.00725   299.511   1137.797   268.000   268.000   10.720   10.720   0.000   0.000
0.02625   0.00725   301.435   1137.797   268.000   268.000   10.720   10.720   0.000   0.000
0.02875   0.00725   303.781   1137.797   268.000   268.000   10.720   10.720   0.000   0.000
0.03125   0.00725   306.484   1137.797   268.000   268.000   10.720   10.720   0.000   0.000
0.03375   0.00725   308.996   1137.797   268.000   268.000   10.720   10.720   0.000   0.000
0.03625   0.00725   311.251   1137.797   268.000   268.000   10.720   10.720   0.000   0.000
0.03875   0.00725   313.292   1137.797   268.000   268.000   10.720   10.720   0.000   0.000
0.04125   0.00725   315.173   1137.797   268.000   268.000   10.720   10.720   0.000   0.000
0.04375   0.00725   316.946   1137.797   268.000   268.000   10.720   10.720   0.000   0.000
0.04625   0.00725   318.654   1137.797   268.000   268.000   10.720   10.720   0.000   0.000
0.04875   0.00725   320.325   1137.797   268.000   268.000   10.720   0.000   0.000   16.222
0.00125   0.00675   293.606   1137.797   268.000   268.000   0.000   10.720   0.000   0.000
0.00375   0.00675   293.688   1137.797   268.000   268.000   10.720   10.720   0.000   0.000
0.00625   0.00675   293.859   1137.797   268.000   268.000   10.720   10.720   0.000   0.000
0.00875   0.00675   294.132   1137.797   268.000   268.000   10.720   10.720   0.000   0.000
0.01125   0.00675   294.526   1137.797   268.000   268.000   10.720   10.720   0.000   0.000
0.01375   0.00675   295.069   1137.797   268.000   268.000   10.720   10.720   0.000   0.000
0.01625   0.00675   295.793   1137.797   268.000   268.000   10.720   10.720   0.000   0.000
0.01875   0.00675   296.740   1137.797   268.000   268.000   10.720   10.720   0.000   0.000
0.02125   0.00675   297.958   1137.797   268.000   268.000   10.720   10.720   0.000   0.000
0.02375   0.00675   299.498   1137.797   268.000   268.000   10.720   10.720   0.000   0.000
0.02625   0.00675   301.417   1137.797   268.000   268.000   10.720   10.720   0.000   0.000
0.02875   0.00675   303.747   1137.797   268.000   268.000   10.720   10.720   0.000   0.000
0.03125   0.00675   306.403   1137.797   268.000   268.000   10.720   10.720   0.000   0.000
0.03375   0.00675   308.899   1137.797   268.000   268.000   10.720   10.720   0.000   0.000
0.03625   0.00675   311.149   1137.797   268.000   268.000   10.720   10.720   0.000   0.000
0.03875   0.00675   313.186   1137.797   268.000   268.000   10.720   10.720   0.000   0.000
0.04125   0.00675   315.066   1137.797   268.000   268.000   10.720   10.720   0.000   0.000
0.04375   0.00675   316.837   1137.797   268.000   268.000   10.720   10.720   0.000   0.000
0.04625   0.00675   318.547   1137.797   268.000   268.000   10.720   10.720   0.000   0.000
0.04875   0.00675   320.239   1137.797   268.000   268.000   10.720   0.000   0.000   16.222
0.00125   0.00625   293.605   1137.797   268.000   2.085   0.000   10.720   0.000   0.000
0.00375   0.00625   293.687   1137.797   268.000   2.085   10.720   10.720   0.000   0.000
0.00625   0.00625   293.857   1137.797   268.000   2.085   10.720   10.720   0.000   0.000
0.00875   0.00625   294.129   1137.797   268.000   2.085   10.720   10.720   0.000   0.000
0.01125   0.00625   294.522   1137.797   268.000   2.085   10.720   10.720   0.000   0.000
0.01375   0.00625   295.064   1137.797   268.000   2.085   10.720   10.720   0.000   0.000
0.01625   0.00625   295.787   1137.797   268.000   2.085   10.720   10.720   0.000   0.000
0.01875   0.00625   296.732   1137.797   268.000   2.085   10.720   10.720   0.000   0.000
0.02125   0.00625   297.947   1137.797   268.000   2.085   10.720   10.720   0.000   0.000
0.02375   0.00625   299.485   1137.797   268.000   2.085   10.720   10.720   0.000   0.000
0.02625   0.00625   301.399   1137.797   268.000   2.085   10.720   10.720   0.000   0.000
0.02875   0.00625   303.719   1137.797   268.000   2.085   10.720   10.720   0.000   0.000
0.03125   0.00625   306.349   1137.797   268.000   2.085   10.720   10.720   0.000   0.000
0.03375   0.00625   308.835   1137.797   268.000   2.085   10.720   10.720   0.000   0.000
0.03625   0.00625   311.080   1137.797   268.000   2.085   10.720   10.720   0.000   0.000
0.03875   0.00625   313.114   1137.797   268.000   2.085   10.720   10.720   0.000   0.000
0.04125   0.00625   314.990   1137.797   268.000   2.085   10.720   10.720   0.000   0.000
0.04375   0.00625   316.760   1137.797   268.000   2.085   10.720   10.720   0.000   0.000
0.04625   0.00625   318.472   1137.797   268.000   2.085   10.720   10.720   0.000   0.000
0.04875   0.00625   320.191   1137.797   268.000   2.085   10.720   0.000   0.000   16.222
0.00125   0.00575   293.345   686.719   2.085   1.046   0.000   0.042   0.000   0.000
0.00375   0.00575   293.398   686.719   2.085   1.046   0.042   0.042   0.000   0.000
0.00625   0.00575   293.509   686.719   2.085   1.046   0.042   0.042   0.000   0.000
0.00875   0.00575   293.688   686.719   2.085   1.046   0.042   0.042   0.000   0.000
0.01125   0.00575   293.952   686.719   2.085   1.046   0.042   0.042   0.000   0.000
0.01375   0.00575   294.321   686.719   2.085   1.046   0.042   0.042   0.000   0.000
0.01625   0.00575   294.824   686.719   2.085   1.046   0.042   0.042   0.000   0.000
0.01875   0.00575   295.494   686.719   2.085   1.046   0.042   0.042   0.000   0.000
0.02125   0.00575   296.374   686.719   2.085   1.046   0.042   0.042   0.000   0.000
0.02375   0.00575   297.509   686.719   2.085   1.046   0.042   0.042   0.000   0.000
0.02625   0.00575   298.950   686.719   2.085   1.046   0.042   0.042   0.000   0.000
0.02875   0.00575   300.723   686.719   2.085   1.046   0.042   0.042   0.000   0.000
0.03125   0.00575   302.753   686.719   2.085   1.046   0.042   0.042   0.000   0.000
0.03375   0.00575   304.673   686.719   2.085   1.046   0.042   0.042   0.000   0.000
0.03625   0.00575   306.410   686.719   2.085   1.046   0.042   0.042   0.000   0.000
0.03875   0.00575   307.996   686.719   2.085   1.046   0.042   0.042   0.000   0.000
0.04125   0.00575   309.489   686.719   2.085   1.046   0.042   0.042   0.000   0.000
0.04375   0.00575   310.949   686.719   2.085   1.046   0.042   0.042   0.000   0.000
0.04625   0.00575   312.625   686.719   2.085   1.046   0.042   0.042   0.000   0.000
0.04875   0.00575   319.082   686.719   2.085   1.046   0.042   0.000   0.000   6.085
0.00125   0.00525   293.129   686.719   1.046   1.046   0.000   0.042   0.000   0.000
0.00375   0.00525   293.152   686.719   1.046   1.046   0.042   0.042   0.000   0.000
0.00625   0.00525   293.202   686.719   1.046   1.046   0.042   0.042   0.000   0.000
0.00875   0.00525   293.284   686.719   1.046   1.046   0.042   0.042   0.000   0.000
0.01125   0.00525   293.408   686.719   1.046   1.046   0.042   0.042   0.000   0.000
0.01375   0.00525   293.586   686.719   1.046   1.046   0.042   0.042   0.000   0.000
0.01625   0.00525   293.837   686.719   1.046   1.046   0.042   0.042   0.000   0.000
0.01875   0.00525   294.182   686.719   1.046   1.046   0.042   0.042   0.000   0.000
0.02125   0.00525   294.650   686.719   1.046   1.046   0.042   0.042   0.000   0.000
0.02375   0.00525   295.274   686.719   1.046   1.046   0.042   0.042   0.000   0.000
0.02625   0.00525   296.091   686.719   1.046   1.046   0.042   0.042   0.000   0.000
0.02875   0.00525   297.125   686.719   1.046   1.046   0.042   0.042   0.000   0.000
0.03125   0.00525   298.330   686.719   1.046   1.046   0.042   0.042   0.000   0.000
0.03375   0.00525   299.486   686.719   1.046   1.046   0.042   0.042   0.000   0.000
0.03625   0.00525   300.553   686.719   1.046   1.046   0.042   0.042   0.000   0.000
0.03875   0.00525   301.564   686.719   1.046   1.046   0.042   0.042   0.000   0.000
0.04125   0.00525   302.573   686.719   1.046   1.046   0.042   0.042   0.000   0.000
0.04375   0.00525   303.649   686.719   1.046   1.046   0.042   0.042   0.000   0.000
0.04625   0.00525   305.288   686.719   1.046   1.046   0.042   0.042   0.000   0.000
0.04875   0.00525   316.119   686.719   1.046   1.046   0.042   0.000   0.000   6.088
0.00125   0.00475   293.048   686.719   1.046   1.046   0.000   0.042   0.000   0.000
0.00375   0.00475   293.058   686.719   1.046   1.046   0.042   0.042   0.000   0.000
0.00625   0.00475   293.080   686.719   1.046   1.046   0.042   0.042   0.000   0.000
0.00875   0.00475   293.117   686.719   1.046   1.046   0.042   0.042   0.000   0.000
0.01125   0.00475   293.174   686.719   1.046   1.046   0.042   0.042   0.000   0.000
0.01375   0.00475   293.259   686.719   1.046   1.046   0.042   0.042   0.000   0.000
0.01625   0.00475   293.382   686.719   1.046   1.046   0.042   0.042   0.000   0.000
0.01875   0.00475   293.557   686.719   1.046   1.046   0.042   0.042   0.000   0.000
0.02125   0.00475   293.802   686.719   1.046   1.046   0.042   0.042   0.000   0.000
0.02375   0.00475   294.138   686.719   1.046   1.046   0.042   0.042   0.000   0.000
0.02625   0.00475   294.591   686.719   1.046   1.046   0.042   0.042   0.000   0.000
0.02875   0.00475   295.180   686.719   1.046   1.046   0.042   0.042   0.000   0.000
0.03125   0.00475   295.887   686.719   1.046   1.046   0.042   0.042   0.000   0.000
0.03375   0.00475   296.601   686.719   1.046   1.046   0.042   0.042   0.000   0.000
0.03625   0.00475   297.310   686.719   1.046   1.046   0.042   0.042   0.000   0.000
0.03875   0.00475   298.045   686.719   1.046   1.046   0.042   0.042   0.000   0.000
0.04125   0.00475   298.847   686.719   1.046   1.046   0.042   0.042   0.000   0.000
0.04375   0.00475   299.777   686.719   1.046   1.046   0.042   0.042   0.000   0.000
0.04625   0.00475   301.323   686.719   1.046   1.046   0.042   0.042   0.000   0.000
0.04875   0.00475   312.113   686.719   1.046   1.046   0.042   0.000   0.000   6.092
0.00125   0.00425   293.026   686.719   1.046   2.085   0.000   0.042   0.000   0.000
0.00375   0.00425   293.032   686.719   1.046   2.085   0.042   0.042   0.000   0.000
0.00625   0.00425   293.045   686.719   1.046   2.085   0.042   0.042   0.000   0.000
0.00875   0.00425   293.067   686.719   1.046   2.085   0.042   0.042   0.000   0.000
0.01125   0.00425   293.100   686.719   1.046   2.085   0.042   0.042   0.000   0.000
0.01375   0.00425   293.151   686.719   1.046   2.085   0.042   0.042   0.000   0.000
0.01625   0.00425   293.225   686.719   1.046   2.085   0.042   0.042   0.000   0.000
0.01875   0.00425   293.331   686.719   1.046   2.085   0.042   0.042   0.000   0.000
0.02125   0.00425   293.479   686.719   1.046   2.085   0.042   0.042   0.000   0.000
0.02375   0.00425   293.683   686.719   1.046   2.085   0.042   0.042   0.000   0.000
0.02625   0.00425   293.959   686.719   1.046   2.085   0.042   0.042   0.000   0.000
0.02875   0.00425   294.322   686.719   1.046   2.085   0.042   0.042   0.000   0.000
0.03125   0.00425   294.776   686.719   1.046   2.085   0.042   0.042   0.000   0.000
0.03375   0.00425   295.298   686.719   1.046   2.085   0.042   0.042   0.000   0.000
0.03625   0.00425   295.895   686.719   1.046   2.085   0.042   0.042   0.000   0.000
0.03875   0.00425   296.591   686.719   1.046   2.085   0.042   0.042   0.000   0.000
0.04125   0.00425   297.414   686.719   1.046   2.085   0.042   0.042   0.000   0.000
0.04375   0.00425   298.398   686.719   1.046   2.085   0.042   0.042   0.000   0.000
0.04625   0.00425   299.769   686.719   1.046   2.085   0.042   0.042   0.000   0.000
0.04875   0.00425   306.085   686.719   1.046   2.085   0.042   0.000   0.000   6.098
0.00125   0.00375   293.033   1137.797   2.085   268.000   0.000   10.720   0.000   0.000
0.00375   0.00375   293.039   1137.797   2.085   268.000   10.720   10.720   0.000   0.000
0.00625   0.00375   293.054   1137.797   2.085   268.000   10.720   10.720   0.000   0.000
0.00875   0.00375   293.077   1137.797   2.085   268.000   10.720   10.720   0.000   0.000
0.01125   0.00375   293.113   1137.797   2.085   268.000   10.720   10.720   0.000   0.000
0.01375   0.00375   293.166   1137.797   2.085   268.000   10.720   10.720   0.000   0.000
0.01625   0.00375   293.240   1137.797   2.085   268.000   10.720   10.720   0.000   0.000
0.01875   0.00375   293.343   1137.797   2.085   268.000   10.720   10.720   0.000   0.000
0.02125   0.00375   293.483   1137.797   2.085   268.000   10.720   10.720   0.000   0.000
0.02375   0.00375   293.670   1137.797   2.085   268.000   10.720   10.720   0.000   0.000
0.02625   0.00375   293.917   1137.797   2.085   268.000   10.720   10.720   0.000   0.000
0.02875   0.00375   294.235   1137.797   2.085   268.000   10.720   10.720   0.000   0.000
0.03125   0.00375   294.639   1137.797   2.085   268.000   10.720   10.720   0.000   0.000
0.03375   0.00375   295.143   1137.797   2.085   268.000   10.720   10.720   0.000   0.000
0.03625   0.00375   295.763   1137.797   2.085   268.000   10.720   10.720   0.000   0.000
0.03875   0.00375   296.517   1137.797   2.085   268.000   10.720   10.720   0.000   0.000
0.04125   0.00375   297.422   1137.797   2.085   268.000   10.720   10.720   0.000   0.000
0.04375   0.00375   298.495   1137.797   2.085   268.000   10.720   10.720   0.000   0.000
0.04625   0.00375   299.759   1137.797   2.085   268.000   10.720   10.720   0.000   0.000
0.04875   0.00375   301.262   1137.797   2.085   268.000   10.720   0.000   0.000   16.274
0.00125   0.00325   293.033   1137.797   268.000   268.000   0.000   10.720   0.000   0.000
0.00375   0.00325   293.040   1137.797   268.000   268.000   10.720   10.720   0.000   0.000
0.00625   0.00325   293.054   1137.797   268.000   268.000   10.720   10.720   0.000   0.000
0.00875   0.00325   293.077   1137.797   268.000   268.000   10.720   10.720   0.000   0.000
0.01125   0.00325   293.113   1137.797   268.000   268.000   10.720   10.720   0.000   0.000
0.01375   0.00325   293.166   1137.797   268.000   268.000   10.720   10.720   0.000   0.000
0.01625   0.00325   293.240   1137.797   268.000   268.000   10.720   10.720   0.000   0.000
0.01875   0.00325   293.343   1137.797   268.000   268.000   10.720   10.720   0.000   0.000
0.02125   0.00325   293.483   1137.797   268.000   268.000   10.720   10.720   0.000   0.000
0.02375   0.00325   293.670   1137.797   268.000   268.000   10.720   10.720   0.000   0.000
0.02625   0.00325   293.916   1137.797   268.000   268.000   10.720   10.720   0.000   0.000
0.02875   0.00325   294.234   1137.797   268.000   268.000   10.720   10.720   0.000   0.000
0.03125   0.00325   294.638   1137.797   268.000   268.000   10.720   10.720   0.000   0.000
0.03375   0.00325   295.142   1137.797   268.000   268.000   10.720   10.720   0.000   0.000
0.03625   0.00325   295.762   1137.797   268.000   268.000   10.720   10.720   0.000   0.000
0.03875   0.00325   296.517   1137.797   268.000   268.000   10.720   10.720   0.000   0.000
0.04125   0.00325   297.422   1137.797   268.000   268.000   10.720   10.720   0.000   0.000
0.04375   0.00325   298.496   1137.797   268.000   268.000   10.720   10.720   0.000   0.000
0.04625   0.00325   299.757   1137.797   268.000   268.000   10.720   10.720   0.000   0.000
0.04875   0.00325   301.232   1137.797   268.000   268.000   10.720   0.000   0.000   16.274
0.00125   0.00275   293.033   1137.797   268.000   268.000   0.000   10.720   0.000   0.000
0.00375   0.00275   293.040   1137.797   268.000   268.000   10.720   10.720   0.000   0.000
0.00625   0.00275   293.054   1137.797   268.000   268.000   10.720   10.720   0.000   0.000
0.00875   0.00275   293.077   1137.797   268.000   268.000   10.720   10.720   0.000   0.000
0.01125   0.00275   293.113   1137.797   268.000   268.000   10.720   10.720   0.000   0.000
0.01375   0.00275   293.166   1137.797   268.000   268.000   10.720   10.720   0.000   0.000
0.01625   0.00275   293.240   1137.797   268.000   268.000   10.720   10.720   0.000   0.000
0.01875   0.00275   293.343   1137.797   268.000   268.000   10.720   10.720   0.000   0.000
0.02125   0.00275   293.483   1137.797   268.000   268.000   10.720   10.720   0.000   0.000
0.02375   0.00275   293.670   1137.797   268.000   268.000   10.720   10.720   0.000   0.000
0.02625   0.00275   293.916   1137.797   268.000   268.000   10.720   10.720   0.000   0.000
0.02875   0.00275   294.234   1137.797   268.000   268.000   10.720   10.720   0.000   0.000
0.03125   0.00275   294.637   1137.797   268.000   268.000   10.720   10.720   0.000   0.000
0.03375   0.00275   295.141   1137.797   268.000   268.000   10.720   10.720   0.000   0.000
0.03625   0.00275   295.762   1137.797   268.000   268.000   10.720   10.720   0.000   0.000
0.03875   0.00275   296.516   1137.797   268.000   268.000   10.720   10.720   0.000   0.000
0.04125   0.00275   297.422   1137.797   268.000   268.000   10.720   10.720   0.000   0.000
0.04375   0.00275   298.496   1137.797   268.000   268.000   10.720   10.720   0.000   0.000
0.04625   0.00275   299.754   1137.797   268.000   268.000   10.720   10.720   0.000   0.000
0.04875   0.00275   301.208   1137.797   268.000   268.000   10.720   0.000   0.000   16.274
0.00125   0.00225   293.033   1137.797   268.000   268.000   0.000   10.720   0.000   0.000
0.00375   0.00225   293.040   1137.797   268.000   268.000   10.720   10.720   0.000   0.000
0.00625   0.00225   293.054   1137.797   268.000   268.000   10.720   10.720   0.000   0.000
0.00875   0.00225   293.077   1137.797   268.000   268.000   10.720   10.720   0.000   0.000
0.01125   0.00225   293.113   1137.797   268.000   268.000   10.720   10.720   0.000   0.000
0.01375   0.00225   293.166   1137.797   268.000   268.000   10.720   10.720   0.000   0.000
0.01625   0.00225   293.240   1137.797   268.000   268.000   10.720   10.720   0.000   0.000
0.01875   0.00225   293.343   1137.797   268.000   268.000   10.720   10.720   0.000   0.000
0.02125   0.00225   293.483   1137.797   268.000   268.000   10.720   10.720   0.000   0.000
0.02375   0.00225   293.670   1137.797   268.000   268.000   10.720   10.720   0.000   0.000
0.02625   0.00225   293.916   1137.797   268.000   268.000   10.720   10.720   0.000   0.000
0.02875   0.00225   294.234   1137.797   268.000   268.000   10.720   10.720   0.000   0.000
0.03125   0.00225   294.637   1137.797   268.000   268.000   10.720   10.720   0.000   0.000
0.03375   0.00225   295.141   1137.797   268.000   268.000   10.720   10.720   0.000   0.000
0.03625   0.00225   295.761   1137.797   268.000   268.000   10.720   10.720   0.000   0.000
0.03875   0.00225   296.516   1137.797   268.000   268.000   10.720   10.720   0.000   0.000
0.04125   0.00225   297.422   1137.797   268.000   268.000   10.720   10.720   0.000   0.000
0.04375   0.00225   298.495   1137.797   268.000   268.000   10.720   10.720   0.000   0.000
0.04625   0.00225   299.751   1137.797   268.000   268.000   10.720   10.720   0.000   0.000
0.04875   0.00225   301.189   1137.797   268.000   268.000   10.720   0.000   0.000   16.274
0.00125   0.00175   293.033   1137.797   268.000   268.000   0.000   10.720   0.000   0.000
0.00375   0.00175   293.040   1137.797   268.000   268.000   10.720   10.720   0.000   0.000
0.00625   0.00175   293.054   1137.797   268.000   268.000   10.720   10.720   0.000   0.000
0.00875   0.00175   293.078   1137.797   268.000   268.000   10.720   10.720   0.000   0.000
0.01125   0.00175   293.113   1137.797   268.000   268.000   10.720   10.720   0.000   0.000
0.01375   0.00175   293.166   1137.797   268.000   268.000   10.720   10.720   0.000   0.000
0.01625   0.00175   293.240   1137.797   268.000   268.000   10.720   10.720   0.000   0.000
0.01875   0.00175   293.343   1137.797   268.000   268.000   10.720   10.720   0.000   0.000
0.02125   0.00175   293.483   1137.797   268.000   268.000   10.720   10.720   0.000   0.000