VARIABLES = X, Y, T, ap,an,as,aw,ae,sp,su
ZONE I=20,J=20, F=POINT,t="11.020"
0.00125   0.00975   293.628   1137.797   0.000   268.000   0.000   10.720   0.000   -0.000
0.00375   0.00975   293.712   1137.797   0.000   268.000   10.720   10.720   0.000   -0.001
0.00625   0.00975   293.887   1137.797   0.000   268.000   10.720   10.720   0.000   -0.001
0.00875   0.00975   294.165   1137.797   0.000   268.000   10.720   10.720   0.000   -0.001
0.01125   0.00975   294.567   1137.797   0.000   268.000   10.720   10.720   0.000   -0.001
0.01375   0.00975   295.120   1137.797   0.000   268.000   10.720   10.720   0.000   -0.002
0.01625   0.00975   295.856   1137.797   0.000   268.000   10.720   10.720   0.000   -0.002
0.01875   0.00975   296.818   1137.797   0.000   268.000   10.720   10.720   0.000   -0.003
0.02125   0.00975   298.053   1137.797   0.000   268.000   10.720   10.720   0.000   -0.004
0.02375   0.00975   299.616   1137.797   0.000   268.000   10.720   10.720   0.000   -0.005
0.02625   0.00975   301.576   1137.797   0.000   268.000   10.720   10.720   0.000   -0.006
0.02875   0.00975   304.045   1137.797   0.000   268.000   10.720   10.720   0.000   -0.008
0.03125   0.00975   307.470   1137.797   0.000   268.000   10.720   10.720   0.000   81.280
0.03375   0.00975   310.104   1137.797   0.000   268.000   10.720   10.720   0.000   81.242
0.03625   0.00975   312.395   1137.797   0.000   268.000   10.720   10.720   0.000   81.209
0.03875   0.00975   314.455   1137.797   0.000   268.000   10.720   10.720   0.000   81.179
0.04125   0.00975   316.351   1137.797   0.000   268.000   10.720   10.720   0.000   81.151
0.04375   0.00975   318.133   1137.797   0.000   268.000   10.720   10.720   0.000   81.123
0.04625   0.00975   319.836   1137.797   0.000   268.000   10.720   10.720   0.000   81.097
0.04875   0.00975   321.468   1137.797   0.000   268.000   10.720   0.000   0.000   97.290
0.00125   0.00925   293.628   1137.797   268.000   268.000   0.000   10.720   0.000   0.000
0.00375   0.00925   293.712   1137.797   268.000   268.000   10.720   10.720   0.000   0.000
0.00625   0.00925   293.887   1137.797   268.000   268.000   10.720   10.720   0.000   0.000
0.00875   0.00925   294.165   1137.797   268.000   268.000   10.720   10.720   0.000   0.000
0.01125   0.00925   294.567   1137.797   268.000   268.000   10.720   10.720   0.000   0.000
0.01375   0.00925   295.119   1137.797   268.000   268.000   10.720   10.720   0.000   0.000
0.01625   0.00925   295.855   1137.797   268.000   268.000   10.720   10.720   0.000   0.000
0.01875   0.00925   296.817   1137.797   268.000   268.000   10.720   10.720   0.000   0.000
0.02125   0.00925   298.051   1137.797   268.000   268.000   10.720   10.720   0.000   0.000
0.02375   0.00925   299.614   1137.797   268.000   268.000   10.720   10.720   0.000   0.000
0.02625   0.00925   301.571   1137.797   268.000   268.000   10.720   10.720   0.000   0.000
0.02875   0.00925   304.024   1137.797   268.000   268.000   10.720   10.720   0.000   0.000
0.03125   0.00925   307.219   1137.797   268.000   268.000   10.720   10.720   0.000   0.000
0.03375   0.00925   309.837   1137.797   268.000   268.000   10.720   10.720   0.000   0.000
0.03625   0.00925   312.126   1137.797   268.000   268.000   10.720   10.720   0.000   0.000
0.03875   0.00925   314.185   1137.797   268.000   268.000   10.720   10.720   0.000   0.000
0.04125   0.00925   316.080   1137.797   268.000   268.000   10.720   10.720   0.000   0.000
0.04375   0.00925   317.862   1137.797   268.000   268.000   10.720   10.720   0.000   0.000
0.04625   0.00925   319.567   1137.797   268.000   268.000   10.720   10.720   0.000   0.000
0.04875   0.00925   321.201   1137.797   268.000   268.000   10.720   0.000   0.000   16.219
0.00125   0.00875   293.628   1137.797   268.000   268.000   0.000   10.720   0.000   0.000
0.00375   0.00875   293.711   1137.797   268.000   268.000   10.720   10.720   0.000   0.000
0.00625   0.00875   293.886   1137.797   268.000   268.000   10.720   10.720   0.000   0.000
0.00875   0.00875   294.164   1137.797   268.000   268.000   10.720   10.720   0.000   0.000
0.01125   0.00875   294.566   1137.797   268.000   268.000   10.720   10.720   0.000   0.000
0.01375   0.00875   295.118   1137.797   268.000   268.000   10.720   10.720   0.000   0.000
0.01625   0.00875   295.854   1137.797   268.000   268.000   10.720   10.720   0.000   0.000
0.01875   0.00875   296.814   1137.797   268.000   268.000   10.720   10.720   0.000   0.000
0.02125   0.00875   298.048   1137.797   268.000   268.000   10.720   10.720   0.000   0.000
0.02375   0.00875   299.610   1137.797   268.000   268.000   10.720   10.720   0.000   0.000
0.02625   0.00875   301.563   1137.797   268.000   268.000   10.720   10.720   0.000   0.000
0.02875   0.00875   303.992   1137.797   268.000   268.000   10.720   10.720   0.000   0.000
0.03125   0.00875   307.011   1137.797   268.000   268.000   10.720   10.720   0.000   0.000
0.03375   0.00875   309.606   1137.797   268.000   268.000   10.720   10.720   0.000   0.000
0.03625   0.00875   311.890   1137.797   268.000   268.000   10.720   10.720   0.000   0.000
0.03875   0.00875   313.948   1137.797   268.000   268.000   10.720   10.720   0.000   0.000
0.04125   0.00875   315.843   1137.797   268.000   268.000   10.720   10.720   0.000   0.000
0.04375   0.00875   317.625   1137.797   268.000   268.000   10.720   10.720   0.000   0.000
0.04625   0.00875   319.330   1137.797   268.000   268.000   10.720   10.720   0.000   0.000
0.04875   0.00875   320.970   1137.797   268.000   268.000   10.720   0.000   0.000   16.220
0.00125   0.00825   293.627   1137.797   268.000   268.000   0.000   10.720   0.000   0.000
0.00375   0.00825   293.711   1137.797   268.000   268.000   10.720   10.720   0.000   0.000
0.00625   0.00825   293.885   1137.797   268.000   268.000   10.720   10.720   0.000   0.000
0.00875   0.00825   294.163   1137.797   268.000   268.000   10.720   10.720   0.000   0.000
0.01125   0.00825   294.564   1137.797   268.000   268.000   10.720   10.720   0.000   0.000
0.01375   0.00825   295.115   1137.797   268.000   268.000   10.720   10.720   0.000   0.000
0.01625   0.00825   295.851   1137.797   268.000   268.000   10.720   10.720   0.000   0.000
0.01875   0.00825   296.811   1137.797   268.000   268.000   10.720   10.720   0.000   0.000
0.02125   0.00825   298.043   1137.797   268.000   268.000   10.720   10.720   0.000   0.000
0.02375   0.00825   299.603   1137.797   268.000   268.000   10.720   10.720   0.000   0.000
0.02625   0.00825   301.551   1137.797   268.000   268.000   10.720   10.720   0.000   0.000
0.02875   0.00825   303.954   1137.797   268.000   268.000   10.720   10.720   0.000   0.000
0.03125   0.00825   306.840   1137.797   268.000   268.000   10.720   10.720   0.000   0.000
0.03375   0.00825   309.409   1137.797   268.000   268.000   10.720   10.720   0.000   0.000
0.03625   0.00825   311.688   1137.797   268.000   268.000   10.720   10.720   0.000   0.000
0.03875   0.00825   313.744   1137.797   268.000   268.000   10.720   10.720   0.000   0.000
0.04125   0.00825   315.638   1137.797   268.000   268.000   10.720   10.720   0.000   0.000
0.04375   0.00825   317.419   1137.797   268.000   268.000   10.720   10.720   0.000   0.000
0.04625   0.00825   319.127   1137.797   268.000   268.000   10.720   10.720   0.000   0.000
0.04875   0.00825   320.774   1137.797   268.000   268.000   10.720   0.000   0.000   16.221
0.00125   0.00775   293.626   1137.797   268.000   268.000   0.000   10.720   0.000   0.000
0.00375   0.00775   293.709   1137.797   268.000   268.000   10.720   10.720   0.000   0.000
0.00625   0.00775   293.883   1137.797   268.000   268.000   10.720   10.720   0.000   0.000
0.00875   0.00775   294.161   1137.797   268.000   268.000   10.720   10.720   0.000   0.000
0.01125   0.00775   294.562   1137.797   268.000   268.000   10.720   10.720   0.000   0.000
0.01375   0.00775   295.112   1137.797   268.000   268.000   10.720   10.720   0.000   0.000
0.01625   0.00775   295.847   1137.797   268.000   268.000   10.720   10.720   0.000   0.000
0.01875   0.00775   296.806   1137.797   268.000   268.000   10.720   10.720   0.000   0.000
0.02125   0.00775   298.037   1137.797   268.000   268.000   10.720   10.720   0.000   0.000
0.02375   0.00775   299.594   1137.797   268.000   268.000   10.720   10.720   0.000   0.000
0.02625   0.00775   301.536   1137.797   268.000   268.000   10.720   10.720   0.000   0.000
0.02875   0.00775   303.915   1137.797   268.000   268.000   10.720   10.720   0.000   0.000
0.03125   0.00775   306.701   1137.797   268.000   268.000   10.720   10.720   0.000   0.000
0.03375   0.00775   309.246   1137.797   268.000   268.000   10.720   10.720   0.000   0.000
0.03625   0.00775   311.519   1137.797   268.000   268.000   10.720   10.720   0.000   0.000
0.03875   0.00775   313.573   1137.797   268.000   268.000   10.720   10.720   0.000   0.000
0.04125   0.00775   315.465   1137.797   268.000   268.000   10.720   10.720   0.000   0.000
0.04375   0.00775   317.246   1137.797   268.000   268.000   10.720   10.720   0.000   0.000
0.04625   0.00775   318.956   1137.797   268.000   268.000   10.720   10.720   0.000   0.000
0.04875   0.00775   320.615   1137.797   268.000   268.000   10.720   0.000   0.000   16.221
0.00125   0.00725   293.624   1137.797   268.000   268.000   0.000   10.720   0.000   0.000
0.00375   0.00725   293.708   1137.797   268.000   268.000   10.720   10.720   0.000   0.000
0.00625   0.00725   293.882   1137.797   268.000   268.000   10.720   10.720   0.000   0.000
0.00875   0.00725   294.159   1137.797   268.000   268.000   10.720   10.720   0.000   0.000
0.01125   0.00725   294.559   1137.797   268.000   268.000   10.720   10.720   0.000   0.000
0.01375   0.00725   295.109   1137.797   268.000   268.000   10.720   10.720   0.000   0.000
0.01625   0.00725   295.842   1137.797   268.000   268.000   10.720   10.720   0.000   0.000
0.01875   0.00725   296.800   1137.797   268.000   268.000   10.720   10.720   0.000   0.000
0.02125   0.00725   298.029   1137.797   268.000   268.000   10.720   10.720   0.000   0.000
0.02375   0.00725   299.584   1137.797   268.000   268.000   10.720   10.720   0.000   0.000
0.02625   0.00725   301.520   1137.797   268.000   268.000   10.720   10.720   0.000   0.000
0.02875   0.00725   303.878   1137.797   268.000   268.000   10.720   10.720   0.000   0.000
0.03125   0.00725   306.593   1137.797   268.000   268.000   10.720   10.720   0.000   0.000
0.03375   0.00725   309.117   1137.797   268.000   268.000   10.720   10.720   0.000   0.000
0.03625   0.00725   311.384   1137.797   268.000   268.000   10.720   10.720   0.000   0.000
0.03875   0.00725   313.435   1137.797   268.000   268.000   10.720   10.720   0.000   0.000
0.04125   0.00725   315.325   1137.797   268.000   268.000   10.720   10.720   0.000   0.000
0.04375   0.00725   317.105   1137.797   268.000   268.000   10.720   10.720   0.000   0.000
0.04625   0.00725   318.818   1137.797   268.000   268.000   10.720   10.720   0.000   0.000
0.04875   0.00725   320.492   1137.797   268.000   268.000   10.720   0.000   0.000   16.221
0.00125   0.00675   293.623   1137.797   268.000   268.000   0.000   10.720   0.000   0.000
0.00375   0.00675   293.706   1137.797   268.000   268.000   10.720   10.720   0.000   0.000
0.00625   0.00675   293.880   1137.797   268.000   268.000   10.720   10.720   0.000   0.000
0.00875   0.00675   294.156   1137.797   268.000   268.000   10.720   10.720   0.000   0.000
0.01125   0.00675   294.555   1137.797   268.000   268.000   10.720   10.720   0.000   0.000
0.01375   0.00675   295.104   1137.797   268.000   268.000   10.720   10.720   0.000   0.000
0.01625   0.00675   295.836   1137.797   268.000   268.000   10.720   10.720   0.000   0.000
0.01875   0.00675   296.792   1137.797   268.000   268.000   10.720   10.720   0.000   0.000
0.02125   0.00675   298.020   1137.797   268.000   268.000   10.720   10.720   0.000   0.000
0.02375   0.00675   299.572   1137.797   268.000   268.000   10.720   10.720   0.000   0.000
0.02625   0.00675   301.502   1137.797   268.000   268.000   10.720   10.720   0.000   0.000
0.02875   0.00675   303.844   1137.797   268.000   268.000   10.720   10.720   0.000   0.000
0.03125   0.00675   306.512   1137.797   268.000   268.000   10.720   10.720   0.000   0.000
0.03375   0.00675   309.020   1137.797   268.000   268.000   10.720   10.720   0.000   0.000
0.03625   0.00675   311.281   1137.797   268.000   268.000   10.720   10.720   0.000   0.000
0.03875   0.00675   313.330   1137.797   268.000   268.000   10.720   10.720   0.000   0.000
0.04125   0.00675   315.218   1137.797   268.000   268.000   10.720   10.720   0.000   0.000
0.04375   0.00675   316.996   1137.797   268.000   268.000   10.720   10.720   0.000   0.000
0.04625   0.00675   318.711   1137.797   268.000   268.000   10.720   10.720   0.000   0.000
0.04875   0.00675   320.406   1137.797   268.000   268.000   10.720   0.000   0.000   16.222
0.00125   0.00625   293.621   1137.797   268.000   2.085   0.000   10.720   0.000   0.000
0.00375   0.00625   293.704   1137.797   268.000   2.085   10.720   10.720   0.000   0.000
0.00625   0.00625   293.877   1137.797   268.000   2.085   10.720   10.720   0.000   0.000
0.00875   0.00625   294.153   1137.797   268.000   2.085   10.720   10.720   0.000   0.000
0.01125   0.00625   294.551   1137.797   268.000   2.085   10.720   10.720   0.000   0.000
0.01375   0.00625   295.099   1137.797   268.000   2.085   10.720   10.720   0.000   0.000
0.01625   0.00625   295.830   1137.797   268.000   2.085   10.720   10.720   0.000   0.000
0.01875   0.00625   296.784   1137.797   268.000   2.085   10.720   10.720   0.000   0.000
0.02125   0.00625   298.009   1137.797   268.000   2.085   10.720   10.720   0.000   0.000
0.02375   0.00625   299.558   1137.797   268.000   2.085   10.720   10.720   0.000   0.000
0.02625   0.00625   301.483   1137.797   268.000   2.085   10.720   10.720   0.000   0.000
0.02875   0.00625   303.816   1137.797   268.000   2.085   10.720   10.720   0.000   0.000
0.03125   0.00625   306.458   1137.797   268.000   2.085   10.720   10.720   0.000   0.000
0.03375   0.00625   308.956   1137.797   268.000   2.085   10.720   10.720   0.000   0.000
0.03625   0.00625   311.212   1137.797   268.000   2.085   10.720   10.720   0.000   0.000
0.03875   0.00625   313.257   1137.797   268.000   2.085   10.720   10.720   0.000   0.000
0.04125   0.00625   315.142   1137.797   268.000   2.085   10.720   10.720   0.000   0.000
0.04375   0.00625   316.919   1137.797   268.000   2.085   10.720   10.720   0.000   0.000
0.04625   0.00625   318.636   1137.797   268.000   2.085   10.720   10.720   0.000   0.000
0.04875   0.00625   320.358   1137.797   268.000   2.085   10.720   0.000   0.000   16.222
0.00125   0.00575   293.355   686.719   2.085   1.046   0.000   0.042   0.000   0.000
0.00375   0.00575   293.409   686.719   2.085   1.046   0.042   0.042   0.000   0.000
0.00625   0.00575   293.522   686.719   2.085   1.046   0.042   0.042   0.000   0.000
0.00875   0.00575   293.705   686.719   2.085   1.046   0.042   0.042   0.000   0.000
0.01125   0.00575   293.973   686.719   2.085   1.046   0.042   0.042   0.000   0.000
0.01375   0.00575   294.347   686.719   2.085   1.046   0.042   0.042   0.000   0.000
0.01625   0.00575   294.857   686.719   2.085   1.046   0.042   0.042   0.000   0.000
0.01875   0.00575   295.535   686.719   2.085   1.046   0.042   0.042   0.000   0.000
0.02125   0.00575   296.424   686.719   2.085   1.046   0.042   0.042   0.000   0.000
0.02375   0.00575   297.569   686.719   2.085   1.046   0.042   0.042   0.000   0.000
0.02625   0.00575   299.021   686.719   2.085   1.046   0.042   0.042   0.000   0.000
0.02875   0.00575   300.807   686.719   2.085   1.046   0.042   0.042   0.000   0.000
0.03125   0.00575   302.849   686.719   2.085   1.046   0.042   0.042   0.000   0.000
0.03375   0.00575   304.782   686.719   2.085   1.046   0.042   0.042   0.000   0.000
0.03625   0.00575   306.530   686.719   2.085   1.046   0.042   0.042   0.000   0.000
0.03875   0.00575   308.128   686.719   2.085   1.046   0.042   0.042   0.000   0.000
0.04125   0.00575   309.630   686.719   2.085   1.046   0.042   0.042   0.000   0.000
0.04375   0.00575   311.099   686.719   2.085   1.046   0.042   0.042   0.000   0.000
0.04625   0.00575   312.783   686.719   2.085   1.046   0.042   0.042   0.000   0.000
0.04875   0.00575   319.250   686.719   2.085   1.046   0.042   0.000   0.000   6.084
0.00125   0.00525   293.134   686.719   1.046   1.046   0.000   0.042   0.000   0.000
0.00375   0.00525   293.158   686.719   1.046   1.046   0.042   0.042   0.000   0.000
0.00625   0.00525   293.209   686.719   1.046   1.046   0.042   0.042   0.000   0.000
0.00875   0.00525   293.292   686.719   1.046   1.046   0.042   0.042   0.000   0.000
0.01125   0.00525   293.419   686.719   1.046   1.046   0.042   0.042   0.000   0.000
0.01375   0.00525   293.601   686.719   1.046   1.046   0.042   0.042   0.000   0.000
0.01625   0.00525   293.856   686.719   1.046   1.046   0.042   0.042   0.000   0.000
0.01875   0.00525   294.206   686.719   1.046   1.046   0.042   0.042   0.000   0.000
0.02125   0.00525   294.681   686.719   1.046   1.046   0.042   0.042   0.000   0.000
0.02375   0.00525   295.313   686.719   1.046   1.046   0.042   0.042   0.000   0.000
0.02625   0.00525   296.139   686.719   1.046   1.046   0.042   0.042   0.000   0.000
0.02875   0.00525   297.183   686.719   1.046   1.046   0.042   0.042   0.000   0.000
0.03125   0.00525   298.400   686.719   1.046   1.046   0.042   0.042   0.000   0.000
0.03375   0.00525   299.567   686.719   1.046   1.046   0.042   0.042   0.000   0.000
0.03625   0.00525   300.644   686.719   1.046   1.046   0.042   0.042   0.000   0.000
0.03875   0.00525   301.666   686.719   1.046   1.046   0.042   0.042   0.000   0.000
0.04125   0.00525   302.684   686.719   1.046   1.046   0.042   0.042   0.000   0.000
0.04375   0.00525   303.770   686.719   1.046   1.046   0.042   0.042   0.000   0.000
0.04625   0.00525   305.419   686.719   1.046   1.046   0.042   0.042   0.000   0.000
0.04875   0.00525   316.271   686.719   1.046   1.046   0.042   0.000   0.000   6.088
0.00125   0.00475   293.050   686.719   1.046   1.046   0.000   0.042   0.000   0.000
0.00375   0.00475   293.060   686.719   1.046   1.046   0.042   0.042   0.000   0.000
0.00625   0.00475   293.083   686.719   1.046   1.046   0.042   0.042   0.000   0.000
0.00875   0.00475   293.121   686.719   1.046   1.046   0.042   0.042   0.000   0.000
0.01125   0.00475   293.180   686.719   1.046   1.046   0.042   0.042   0.000   0.000
0.01375   0.00475   293.267   686.719   1.046   1.046   0.042   0.042   0.000   0.000
0.01625   0.00475   293.393   686.719   1.046   1.046   0.042   0.042   0.000   0.000
0.01875   0.00475   293.572   686.719   1.046   1.046   0.042   0.042   0.000   0.000
0.02125   0.00475   293.821   686.719   1.046   1.046   0.042   0.042   0.000   0.000
0.02375   0.00475   294.163   686.719   1.046   1.046   0.042   0.042   0.000   0.000
0.02625   0.00475   294.622   686.719   1.046   1.046   0.042   0.042   0.000   0.000
0.02875   0.00475   295.219   686.719   1.046   1.046   0.042   0.042   0.000   0.000
0.03125   0.00475   295.934   686.719   1.046   1.046   0.042   0.042   0.000   0.000
0.03375   0.00475   296.657   686.719   1.046   1.046   0.042   0.042   0.000   0.000
0.03625   0.00475   297.374   686.719   1.046   1.046   0.042   0.042   0.000   0.000
0.03875   0.00475   298.117   686.719   1.046   1.046   0.042   0.042   0.000   0.000
0.04125   0.00475   298.927   686.719   1.046   1.046   0.042   0.042   0.000   0.000
0.04375   0.00475   299.865   686.719   1.046   1.046   0.042   0.042   0.000   0.000
0.04625   0.00475   301.421   686.719   1.046   1.046   0.042   0.042   0.000   0.000
0.04875   0.00475   312.230   686.719   1.046   1.046   0.042   0.000   0.000   6.092
0.00125   0.00425   293.027   686.719   1.046   2.085   0.000   0.042   0.000   0.000
0.00375   0.00425   293.033   686.719   1.046   2.085   0.042   0.042   0.000   0.000
0.00625   0.00425   293.047   686.719   1.046   2.085   0.042   0.042   0.000   0.000
0.00875   0.00425   293.069   686.719   1.046   2.085   0.042   0.042   0.000   0.000
0.01125   0.00425   293.104   686.719   1.046   2.085   0.042   0.042   0.000   0.000
0.01375   0.00425   293.156   686.719   1.046   2.085   0.042   0.042   0.000   0.000
0.01625   0.00425   293.232   686.719   1.046   2.085   0.042   0.042   0.000   0.000
0.01875   0.00425   293.339   686.719   1.046   2.085   0.042   0.042   0.000   0.000
0.02125   0.00425   293.490   686.719   1.046   2.085   0.042   0.042   0.000   0.000
0.02375   0.00425   293.698   686.719   1.046   2.085   0.042   0.042   0.000   0.000
0.02625   0.00425   293.978   686.719   1.046   2.085   0.042   0.042   0.000   0.000
0.02875   0.00425   294.346   686.719   1.046   2.085   0.042   0.042   0.000   0.000
0.03125   0.00425   294.806   686.719   1.046   2.085   0.042   0.042   0.000   0.000
0.03375   0.00425   295.333   686.719   1.046   2.085   0.042   0.042   0.000   0.000
0.03625   0.00425   295.936   686.719   1.046   2.085   0.042   0.042   0.000   0.000
0.03875   0.00425   296.637   686.719   1.046   2.085   0.042   0.042   0.000   0.000
0.04125   0.00425   297.465   686.719   1.046   2.085   0.042   0.042   0.000   0.000
0.04375   0.00425   298.453   686.719   1.046   2.085   0.042   0.042   0.000   0.000
0.04625   0.00425   299.830   686.719   1.046   2.085   0.042   0.042   0.000   0.000
0.04875   0.00425   306.154   686.719   1.046   2.085   0.042   0.000   0.000   6.098
0.00125   0.00375   293.034   1137.797   2.085   268.000   0.000   10.720   0.000   0.000
0.00375   0.00375   293.041   1137.797   2.085   268.000   10.720   10.720   0.000   0.000
0.00625   0.00375   293.056   1137.797   2.085   268.000   10.720   10.720   0.000   0.000
0.00875   0.00375   293.080   1137.797   2.085   268.000   10.720   10.720   0.000   0.000
0.01125   0.00375   293.117   1137.797   2.085   268.000   10.720   10.720   0.000   0.000
0.01375   0.00375   293.170   1137.797   2.085   268.000   10.720   10.720   0.000   0.000
0.01625   0.00375   293.246   1137.797   2.085   268.000   10.720   10.720   0.000   0.000
0.01875   0.00375   293.351   1137.797   2.085   268.000   10.720   10.720   0.000   0.000
0.02125   0.00375   293.493   1137.797   2.085   268.000   10.720   10.720   0.000   0.000
0.02375   0.00375   293.683   1137.797   2.085   268.000   10.720   10.720   0.000   0.000
0.02625   0.00375   293.933   1137.797   2.085   268.000   10.720   10.720   0.000   0.000
0.02875   0.00375   294.254   1137.797   2.085   268.000   10.720   10.720   0.000   0.000
0.03125   0.00375   294.662   1137.797   2.085   268.000   10.720   10.720   0.000   0.000
0.03375   0.00375   295.169   1137.797   2.085   268.000   10.720   10.720   0.000   0.000
0.03625   0.00375   295.793   1137.797   2.085   268.000   10.720   10.720   0.000   0.000
0.03875   0.00375   296.550   1137.797   2.085   268.000   10.720   10.720   0.000   0.000
0.04125   0.00375   297.458   1137.797   2.085   268.000   10.720   10.720   0.000   0.000
0.04375   0.00375   298.534   1137.797   2.085   268.000   10.720   10.720   0.000   0.000
0.04625   0.00375   299.800   1137.797   2.085   268.000   10.720   10.720   0.000   0.000
0.04875   0.00375   301.305   1137.797   2.085   268.000   10.720   0.000   0.000   16.274
0.00125   0.00325   293.034   1137.797   268.000   268.000   0.000   10.720   0.000   0.000
0.00375   0.00325   293.041   1137.797   268.000   268.000   10.720   10.720   0.000   0.000
0.00625   0.00325   293.056   1137.797   268.000   268.000   10.720   10.720   0.000   0.000
0.00875   0.00325   293.080   1137.797   268.000   268.000   10.720   10.720   0.000   0.000
0.01125   0.00325   293.117   1137.797   268.000   268.000   10.720   10.720   0.000   0.000
0.01375   0.00325   293.170   1137.797   268.000   268.000   10.720   10.720   0.000   0.000
0.01625   0.00325   293.246   1137.797   268.000   268.000   10.720   10.720   0.000   0.000
0.01875   0.00325   293.351   1137.797   268.000   268.000   10.720   10.720   0.000   0.000
0.02125   0.00325   293.493   1137.797   268.000   268.000   10.720   10.720   0.000   0.000
0.02375   0.00325   293.683   1137.797   268.000   268.000   10.720   10.720   0.000   0.000
0.02625   0.00325   293.932   1137.797   268.000   268.000   10.720   10.720   0.000   0.000
0.02875   0.00325   294.254   1137.797   268.000   268.000   10.720   10.720   0.000   0.000
0.03125   0.00325   294.661   1137.797   268.000   268.000   10.720   10.720   0.000   0.000
0.03375   0.00325   295.168   1137.797   268.000   268.000   10.720   10.720   0.000   0.000
0.03625   0.00325   295.792   1137.797   268.000   268.000   10.720   10.720   0.000   0.000
0.03875   0.00325   296.550   1137.797   268.000   268.000   10.720   10.720   0.000   0.000
0.04125   0.00325   297.458   1137.797   268.000   268.000   10.720   10.720   0.000   0.000
0.04375   0.00325   298.535   1137.797   268.000   268.000   10.720   10.720   0.000   0.000
0.04625   0.00325   299.798   1137.797   268.000   268.000   10.720   10.720   0.000   0.000
0.04875   0.00325   301.274   1137.797   268.000   268.000   10.720   0.000   0.000   16.274
0.00125   0.00275   293.034   1137.797   268.000   268.000   0.000   10.720   0.000   0.000
0.00375   0.00275   293.041   1137.797   268.000   268.000   10.720   10.720   0.000   0.000
0.00625   0.00275   293.056   1137.797   268.000   268.000   10.720   10.720   0.000   0.000
0.00875   0.00275   293.080   1137.797   268.000   268.000   10.720   10.720   0.000   0.000
0.01125   0.00275   293.117   1137.797   268.000   268.000   10.720   10.720   0.000   0.000
0.01375   0.00275   293.170   1137.797   268.000   268.000   10.720   10.720   0.000   0.000
0.01625   0.00275   293.246   1137.797   268.000   268.000   10.720   10.720   0.000   0.000
0.01875   0.00275   293.351   1137.797   268.000   268.000   10.720   10.720   0.000   0.000
0.02125   0.00275   293.493   1137.797   268.000   268.000   10.720   10.720   0.000   0.000
0.02375   0.00275   293.683   1137.797   268.000   268.000   10.720   10.720   0.000   0.000
0.02625   0.00275   293.932   1137.797   268.000   268.000   10.720   10.720   0.000   0.000
0.02875   0.00275   294.253   1137.797   268.000   268.000   10.720   10.720   0.000   0.000
0.03125   0.00275   294.660   1137.797   268.000   268.000   10.720   10.720   0.000   0.000
0.03375   0.00275   295.167   1137.797   268.000   268.000   10.720   10.720   0.000   0.000
0.03625   0.00275   295.792   1137.797   268.000   268.000   10.720   10.720   0.000   0.000
0.03875   0.00275   296.549   1137.797   268.000   268.000   10.720   10.720   0.000   0.000
0.04125   0.00275   297.458   1137.797   268.000   268.000   10.720   10.720   0.000   0.000
0.04375   0.00275   298.534   1137.797   268.000   268.000   10.720   10.720   0.000   0.000
0.04625   0.00275   299.795   1137.797   268.000   268.000   10.720   10.720   0.000   0.000
0.04875   0.00275   301.250   1137.797   268.000   268.000   10.720   0.000   0.000   16.274
0.00125   0.00225   293.034   1137.797   268.000   268.000   0.000   10.720   0.000   0.000
0.00375   0.00225   293.041   1137.797   268.000   268.000   10.720   10.720   0.000   0.000
0.00625   0.00225   293.056   1137.797   268.000   268.000   10.720   10.720   0.000   0.000
0.00875   0.00225   293.080   1137.797   268.000   268.000   10.720   10.720   0.000   0.000
0.01125   0.00225   293.117   1137.797   268.000   268.000   10.720   10.720   0.000   0.000
0.01375   0.00225   293.171   1137.797   268.000   268.000   10.720   10.720   0.000   0.000
0.01625   0.00225   293.246   1137.797   268.000   268.000   10.720   10.720   0.000   0.000
0.01875   0.00225   293.351   1137.797   268.000   268.000   10.720   10.720   0.000   0.000
0.02125   0.00225   293.493   1137.797   268.000   268.000   10.720   10.720   0.000   0.000
0.02375   0.00225   293.683   1137.797   268.000   268.000   10.720   10.720   0.000   0.000
0.02625   0.00225   293.932   1137.797   268.000   268.000   10.720   10.720   0.000   0.000
0.02875   0.00225   294.253   1137.797   268.000   268.000   10.720   10.720   0.000   0.000
0.03125   0.00225   294.659   1137.797   268.000   268.000   10.720   10.720   0.000   0.000
0.03375   0.00225   295.167   1137.797   268.000   268.000   10.720   10.720   0.000   0.000
0.03625   0.00225   295.791   1137.797   268.000   268.000   10.720   10.720   0.000   0.000
0.03875   0.00225   296.549   1137.797   268.000   268.000   10.720   10.720   0.000   0.000
0.04125   0.00225   297.458   1137.797   268.000   268.000   10.720   10.720   0.000   0.000
0.04375   0.00225   298.534   1137.797   268.000   268.000   10.720   10.720   0.000   0.000
0.04625   0.00225   299.791   1137.797   268.000   268.000   10.720   10.720   0.000   0.000
0.04875   0.00225   301.230   1137.797   268.000   268.000   10.720   0.000   0.000   16.274
0.00125   0.00175   293.034   1137.797   268.000   268.000   0.000   10.720   0.000   0.000
0.00375   0.00175   293.041   1137.797   268.000   268.000   10.720   10.720   0.000   0.000
0.00625   0.00175   293.056   1137.797   268.000   268.000   10.720   10.720   0.000   0.000
0.00875   0.00175   293.080   1137.797   268.000   268.000   10.720   10.720   0.000   0.000
0.01125   0.00175   293.117   1137.797   268.000   268.000   10.720   10.720   0.000   0.000
0.01375   0.00175   293.171   1137.797   268.000   268.000   10.720   10.720   0.000   0.000
0.01625   0.00175   293.246   1137.797   268.000   268.000   10.720   10.720   0.000   0.000
0.01875   0.00175   293.351   1137.797   268.000   268.000   10.720   10.720   0.000   0.000
0.02125   0.00175   293.493   1137.797   268.000   268.000   10.720   10.720   0.000   0.000