VARIABLES = X, Y, T, ap,an,as,aw,ae,sp,su
ZONE I=20,J=20, F=POINT,t="11.644"
0.00125   0.00975   293.748   1137.797   0.000   268.000   0.000   10.720   0.000   -0.001
0.00375   0.00975   293.840   1137.797   0.000   268.000   10.720   10.720   0.000   -0.001
0.00625   0.00975   294.032   1137.797   0.000   268.000   10.720   10.720   0.000   -0.001
0.00875   0.00975   294.336   1137.797   0.000   268.000   10.720   10.720   0.000   -0.001
0.01125   0.00975   294.773   1137.797   0.000   268.000   10.720   10.720   0.000   -0.001
0.01375   0.00975   295.369   1137.797   0.000   268.000   10.720   10.720   0.000   -0.002
0.01625   0.00975   296.157   1137.797   0.000   268.000   10.720   10.720   0.000   -0.002
0.01875   0.00975   297.178   1137.797   0.000   268.000   10.720   10.720   0.000   -0.003
0.02125   0.00975   298.480   1137.797   0.000   268.000   10.720   10.720   0.000   -0.004
0.02375   0.00975   300.116   1137.797   0.000   268.000   10.720   10.720   0.000   -0.005
0.02625   0.00975   302.154   1137.797   0.000   268.000   10.720   10.720   0.000   -0.007
0.02875   0.00975   304.703   1137.797   0.000   268.000   10.720   10.720   0.000   -0.009
0.03125   0.00975   308.209   1137.797   0.000   268.000   10.720   10.720   0.000   81.269
0.03375   0.00975   310.923   1137.797   0.000   268.000   10.720   10.720   0.000   81.231
0.03625   0.00975   313.289   1137.797   0.000   268.000   10.720   10.720   0.000   81.196
0.03875   0.00975   315.417   1137.797   0.000   268.000   10.720   10.720   0.000   81.165
0.04125   0.00975   317.371   1137.797   0.000   268.000   10.720   10.720   0.000   81.135
0.04375   0.00975   319.200   1137.797   0.000   268.000   10.720   10.720   0.000   81.107
0.04625   0.00975   320.936   1137.797   0.000   268.000   10.720   10.720   0.000   81.080
0.04875   0.00975   322.585   1137.797   0.000   268.000   10.720   0.000   0.000   97.269
0.00125   0.00925   293.748   1137.797   268.000   268.000   0.000   10.720   0.000   0.000
0.00375   0.00925   293.840   1137.797   268.000   268.000   10.720   10.720   0.000   0.000
0.00625   0.00925   294.032   1137.797   268.000   268.000   10.720   10.720   0.000   0.000
0.00875   0.00925   294.336   1137.797   268.000   268.000   10.720   10.720   0.000   0.000
0.01125   0.00925   294.772   1137.797   268.000   268.000   10.720   10.720   0.000   0.000
0.01375   0.00925   295.368   1137.797   268.000   268.000   10.720   10.720   0.000   0.000
0.01625   0.00925   296.156   1137.797   268.000   268.000   10.720   10.720   0.000   0.000
0.01875   0.00925   297.177   1137.797   268.000   268.000   10.720   10.720   0.000   0.000
0.02125   0.00925   298.478   1137.797   268.000   268.000   10.720   10.720   0.000   0.000
0.02375   0.00925   300.114   1137.797   268.000   268.000   10.720   10.720   0.000   0.000
0.02625   0.00925   302.149   1137.797   268.000   268.000   10.720   10.720   0.000   0.000
0.02875   0.00925   304.682   1137.797   268.000   268.000   10.720   10.720   0.000   0.000
0.03125   0.00925   307.958   1137.797   268.000   268.000   10.720   10.720   0.000   0.000
0.03375   0.00925   310.655   1137.797   268.000   268.000   10.720   10.720   0.000   0.000
0.03625   0.00925   313.019   1137.797   268.000   268.000   10.720   10.720   0.000   0.000
0.03875   0.00925   315.147   1137.797   268.000   268.000   10.720   10.720   0.000   0.000
0.04125   0.00925   317.101   1137.797   268.000   268.000   10.720   10.720   0.000   0.000
0.04375   0.00925   318.930   1137.797   268.000   268.000   10.720   10.720   0.000   0.000
0.04625   0.00925   320.667   1137.797   268.000   268.000   10.720   10.720   0.000   0.000
0.04875   0.00925   322.318   1137.797   268.000   268.000   10.720   0.000   0.000   16.216
0.00125   0.00875   293.747   1137.797   268.000   268.000   0.000   10.720   0.000   0.000
0.00375   0.00875   293.839   1137.797   268.000   268.000   10.720   10.720   0.000   0.000
0.00625   0.00875   294.031   1137.797   268.000   268.000   10.720   10.720   0.000   0.000
0.00875   0.00875   294.335   1137.797   268.000   268.000   10.720   10.720   0.000   0.000
0.01125   0.00875   294.771   1137.797   268.000   268.000   10.720   10.720   0.000   0.000
0.01375   0.00875   295.366   1137.797   268.000   268.000   10.720   10.720   0.000   0.000
0.01625   0.00875   296.154   1137.797   268.000   268.000   10.720   10.720   0.000   0.000
0.01875   0.00875   297.174   1137.797   268.000   268.000   10.720   10.720   0.000   0.000
0.02125   0.00875   298.475   1137.797   268.000   268.000   10.720   10.720   0.000   0.000
0.02375   0.00875   300.109   1137.797   268.000   268.000   10.720   10.720   0.000   0.000
0.02625   0.00875   302.140   1137.797   268.000   268.000   10.720   10.720   0.000   0.000
0.02875   0.00875   304.650   1137.797   268.000   268.000   10.720   10.720   0.000   0.000
0.03125   0.00875   307.750   1137.797   268.000   268.000   10.720   10.720   0.000   0.000
0.03375   0.00875   310.424   1137.797   268.000   268.000   10.720   10.720   0.000   0.000
0.03625   0.00875   312.784   1137.797   268.000   268.000   10.720   10.720   0.000   0.000
0.03875   0.00875   314.910   1137.797   268.000   268.000   10.720   10.720   0.000   0.000
0.04125   0.00875   316.863   1137.797   268.000   268.000   10.720   10.720   0.000   0.000
0.04375   0.00875   318.692   1137.797   268.000   268.000   10.720   10.720   0.000   0.000
0.04625   0.00875   320.430   1137.797   268.000   268.000   10.720   10.720   0.000   0.000
0.04875   0.00875   322.087   1137.797   268.000   268.000   10.720   0.000   0.000   16.217
0.00125   0.00825   293.746   1137.797   268.000   268.000   0.000   10.720   0.000   0.000
0.00375   0.00825   293.838   1137.797   268.000   268.000   10.720   10.720   0.000   0.000
0.00625   0.00825   294.030   1137.797   268.000   268.000   10.720   10.720   0.000   0.000
0.00875   0.00825   294.334   1137.797   268.000   268.000   10.720   10.720   0.000   0.000
0.01125   0.00825   294.769   1137.797   268.000   268.000   10.720   10.720   0.000   0.000
0.01375   0.00825   295.364   1137.797   268.000   268.000   10.720   10.720   0.000   0.000
0.01625   0.00825   296.151   1137.797   268.000   268.000   10.720   10.720   0.000   0.000
0.01875   0.00825   297.170   1137.797   268.000   268.000   10.720   10.720   0.000   0.000
0.02125   0.00825   298.470   1137.797   268.000   268.000   10.720   10.720   0.000   0.000
0.02375   0.00825   300.102   1137.797   268.000   268.000   10.720   10.720   0.000   0.000
0.02625   0.00825   302.128   1137.797   268.000   268.000   10.720   10.720   0.000   0.000
0.02875   0.00825   304.612   1137.797   268.000   268.000   10.720   10.720   0.000   0.000
0.03125   0.00825   307.578   1137.797   268.000   268.000   10.720   10.720   0.000   0.000
0.03375   0.00825   310.227   1137.797   268.000   268.000   10.720   10.720   0.000   0.000
0.03625   0.00825   312.581   1137.797   268.000   268.000   10.720   10.720   0.000   0.000
0.03875   0.00825   314.706   1137.797   268.000   268.000   10.720   10.720   0.000   0.000
0.04125   0.00825   316.658   1137.797   268.000   268.000   10.720   10.720   0.000   0.000
0.04375   0.00825   318.486   1137.797   268.000   268.000   10.720   10.720   0.000   0.000
0.04625   0.00825   320.227   1137.797   268.000   268.000   10.720   10.720   0.000   0.000
0.04875   0.00825   321.891   1137.797   268.000   268.000   10.720   0.000   0.000   16.217
0.00125   0.00775   293.745   1137.797   268.000   268.000   0.000   10.720   0.000   0.000
0.00375   0.00775   293.837   1137.797   268.000   268.000   10.720   10.720   0.000   0.000
0.00625   0.00775   294.028   1137.797   268.000   268.000   10.720   10.720   0.000   0.000
0.00875   0.00775   294.332   1137.797   268.000   268.000   10.720   10.720   0.000   0.000
0.01125   0.00775   294.767   1137.797   268.000   268.000   10.720   10.720   0.000   0.000
0.01375   0.00775   295.361   1137.797   268.000   268.000   10.720   10.720   0.000   0.000
0.01625   0.00775   296.147   1137.797   268.000   268.000   10.720   10.720   0.000   0.000
0.01875   0.00775   297.165   1137.797   268.000   268.000   10.720   10.720   0.000   0.000
0.02125   0.00775   298.463   1137.797   268.000   268.000   10.720   10.720   0.000   0.000
0.02375   0.00775   300.093   1137.797   268.000   268.000   10.720   10.720   0.000   0.000
0.02625   0.00775   302.113   1137.797   268.000   268.000   10.720   10.720   0.000   0.000
0.02875   0.00775   304.573   1137.797   268.000   268.000   10.720   10.720   0.000   0.000
0.03125   0.00775   307.440   1137.797   268.000   268.000   10.720   10.720   0.000   0.000
0.03375   0.00775   310.064   1137.797   268.000   268.000   10.720   10.720   0.000   0.000
0.03625   0.00775   312.412   1137.797   268.000   268.000   10.720   10.720   0.000   0.000
0.03875   0.00775   314.534   1137.797   268.000   268.000   10.720   10.720   0.000   0.000
0.04125   0.00775   316.485   1137.797   268.000   268.000   10.720   10.720   0.000   0.000
0.04375   0.00775   318.313   1137.797   268.000   268.000   10.720   10.720   0.000   0.000
0.04625   0.00775   320.056   1137.797   268.000   268.000   10.720   10.720   0.000   0.000
0.04875   0.00775   321.732   1137.797   268.000   268.000   10.720   0.000   0.000   16.218
0.00125   0.00725   293.743   1137.797   268.000   268.000   0.000   10.720   0.000   0.000
0.00375   0.00725   293.835   1137.797   268.000   268.000   10.720   10.720   0.000   0.000
0.00625   0.00725   294.026   1137.797   268.000   268.000   10.720   10.720   0.000   0.000
0.00875   0.00725   294.329   1137.797   268.000   268.000   10.720   10.720   0.000   0.000
0.01125   0.00725   294.764   1137.797   268.000   268.000   10.720   10.720   0.000   0.000
0.01375   0.00725   295.357   1137.797   268.000   268.000   10.720   10.720   0.000   0.000
0.01625   0.00725   296.142   1137.797   268.000   268.000   10.720   10.720   0.000   0.000
0.01875   0.00725   297.159   1137.797   268.000   268.000   10.720   10.720   0.000   0.000
0.02125   0.00725   298.455   1137.797   268.000   268.000   10.720   10.720   0.000   0.000
0.02375   0.00725   300.082   1137.797   268.000   268.000   10.720   10.720   0.000   0.000
0.02625   0.00725   302.096   1137.797   268.000   268.000   10.720   10.720   0.000   0.000
0.02875   0.00725   304.535   1137.797   268.000   268.000   10.720   10.720   0.000   0.000
0.03125   0.00725   307.331   1137.797   268.000   268.000   10.720   10.720   0.000   0.000
0.03375   0.00725   309.934   1137.797   268.000   268.000   10.720   10.720   0.000   0.000
0.03625   0.00725   312.277   1137.797   268.000   268.000   10.720   10.720   0.000   0.000
0.03875   0.00725   314.396   1137.797   268.000   268.000   10.720   10.720   0.000   0.000
0.04125   0.00725   316.345   1137.797   268.000   268.000   10.720   10.720   0.000   0.000
0.04375   0.00725   318.172   1137.797   268.000   268.000   10.720   10.720   0.000   0.000
0.04625   0.00725   319.917   1137.797   268.000   268.000   10.720   10.720   0.000   0.000
0.04875   0.00725   321.609   1137.797   268.000   268.000   10.720   0.000   0.000   16.218
0.00125   0.00675   293.742   1137.797   268.000   268.000   0.000   10.720   0.000   0.000
0.00375   0.00675   293.834   1137.797   268.000   268.000   10.720   10.720   0.000   0.000
0.00625   0.00675   294.024   1137.797   268.000   268.000   10.720   10.720   0.000   0.000
0.00875   0.00675   294.326   1137.797   268.000   268.000   10.720   10.720   0.000   0.000
0.01125   0.00675   294.760   1137.797   268.000   268.000   10.720   10.720   0.000   0.000
0.01375   0.00675   295.352   1137.797   268.000   268.000   10.720   10.720   0.000   0.000
0.01625   0.00675   296.136   1137.797   268.000   268.000   10.720   10.720   0.000   0.000
0.01875   0.00675   297.151   1137.797   268.000   268.000   10.720   10.720   0.000   0.000
0.02125   0.00675   298.445   1137.797   268.000   268.000   10.720   10.720   0.000   0.000
0.02375   0.00675   300.070   1137.797   268.000   268.000   10.720   10.720   0.000   0.000
0.02625   0.00675   302.078   1137.797   268.000   268.000   10.720   10.720   0.000   0.000
0.02875   0.00675   304.501   1137.797   268.000   268.000   10.720   10.720   0.000   0.000
0.03125   0.00675   307.250   1137.797   268.000   268.000   10.720   10.720   0.000   0.000
0.03375   0.00675   309.837   1137.797   268.000   268.000   10.720   10.720   0.000   0.000
0.03625   0.00675   312.174   1137.797   268.000   268.000   10.720   10.720   0.000   0.000
0.03875   0.00675   314.290   1137.797   268.000   268.000   10.720   10.720   0.000   0.000
0.04125   0.00675   316.237   1137.797   268.000   268.000   10.720   10.720   0.000   0.000
0.04375   0.00675   318.062   1137.797   268.000   268.000   10.720   10.720   0.000   0.000
0.04625   0.00675   319.811   1137.797   268.000   268.000   10.720   10.720   0.000   0.000
0.04875   0.00675   321.523   1137.797   268.000   268.000   10.720   0.000   0.000   16.218
0.00125   0.00625   293.739   1137.797   268.000   2.085   0.000   10.720   0.000   0.000
0.00375   0.00625   293.831   1137.797   268.000   2.085   10.720   10.720   0.000   0.000
0.00625   0.00625   294.021   1137.797   268.000   2.085   10.720   10.720   0.000   0.000
0.00875   0.00625   294.323   1137.797   268.000   2.085   10.720   10.720   0.000   0.000
0.01125   0.00625   294.756   1137.797   268.000   2.085   10.720   10.720   0.000   0.000
0.01375   0.00625   295.346   1137.797   268.000   2.085   10.720   10.720   0.000   0.000
0.01625   0.00625   296.128   1137.797   268.000   2.085   10.720   10.720   0.000   0.000
0.01875   0.00625   297.142   1137.797   268.000   2.085   10.720   10.720   0.000   0.000
0.02125   0.00625   298.434   1137.797   268.000   2.085   10.720   10.720   0.000   0.000
0.02375   0.00625   300.055   1137.797   268.000   2.085   10.720   10.720   0.000   0.000
0.02625   0.00625   302.058   1137.797   268.000   2.085   10.720   10.720   0.000   0.000
0.02875   0.00625   304.471   1137.797   268.000   2.085   10.720   10.720   0.000   0.000
0.03125   0.00625   307.195   1137.797   268.000   2.085   10.720   10.720   0.000   0.000
0.03375   0.00625   309.772   1137.797   268.000   2.085   10.720   10.720   0.000   0.000
0.03625   0.00625   312.104   1137.797   268.000   2.085   10.720   10.720   0.000   0.000
0.03875   0.00625   314.217   1137.797   268.000   2.085   10.720   10.720   0.000   0.000
0.04125   0.00625   316.161   1137.797   268.000   2.085   10.720   10.720   0.000   0.000
0.04375   0.00625   317.985   1137.797   268.000   2.085   10.720   10.720   0.000   0.000
0.04625   0.00625   319.735   1137.797   268.000   2.085   10.720   10.720   0.000   0.000
0.04875   0.00625   321.475   1137.797   268.000   2.085   10.720   0.000   0.000   16.219
0.00125   0.00575   293.433   686.719   2.085   1.046   0.000   0.042   0.000   0.000
0.00375   0.00575   293.494   686.719   2.085   1.046   0.042   0.042   0.000   0.000
0.00625   0.00575   293.621   686.719   2.085   1.046   0.042   0.042   0.000   0.000
0.00875   0.00575   293.825   686.719   2.085   1.046   0.042   0.042   0.000   0.000
0.01125   0.00575   294.121   686.719   2.085   1.046   0.042   0.042   0.000   0.000
0.01375   0.00575   294.532   686.719   2.085   1.046   0.042   0.042   0.000   0.000
0.01625   0.00575   295.086   686.719   2.085   1.046   0.042   0.042   0.000   0.000
0.01875   0.00575   295.817   686.719   2.085   1.046   0.042   0.042   0.000   0.000
0.02125   0.00575   296.767   686.719   2.085   1.046   0.042   0.042   0.000   0.000
0.02375   0.00575   297.981   686.719   2.085   1.046   0.042   0.042   0.000   0.000
0.02625   0.00575   299.508   686.719   2.085   1.046   0.042   0.042   0.000   0.000
0.02875   0.00575   301.374   686.719   2.085   1.046   0.042   0.042   0.000   0.000
0.03125   0.00575   303.499   686.719   2.085   1.046   0.042   0.042   0.000   0.000
0.03375   0.00575   305.515   686.719   2.085   1.046   0.042   0.042   0.000   0.000
0.03625   0.00575   307.343   686.719   2.085   1.046   0.042   0.042   0.000   0.000
0.03875   0.00575   309.014   686.719   2.085   1.046   0.042   0.042   0.000   0.000
0.04125   0.00575   310.582   686.719   2.085   1.046   0.042   0.042   0.000   0.000
0.04375   0.00575   312.106   686.719   2.085   1.046   0.042   0.042   0.000   0.000
0.04625   0.00575   313.839   686.719   2.085   1.046   0.042   0.042   0.000   0.000
0.04875   0.00575   320.373   686.719   2.085   1.046   0.042   0.000   0.000   6.083
0.00125   0.00525   293.169   686.719   1.046   1.046   0.000   0.042   0.000   0.000
0.00375   0.00525   293.197   686.719   1.046   1.046   0.042   0.042   0.000   0.000
0.00625   0.00525   293.257   686.719   1.046   1.046   0.042   0.042   0.000   0.000
0.00875   0.00525   293.354   686.719   1.046   1.046   0.042   0.042   0.000   0.000
0.01125   0.00525   293.498   686.719   1.046   1.046   0.042   0.042   0.000   0.000
0.01375   0.00525   293.704   686.719   1.046   1.046   0.042   0.042   0.000   0.000
0.01625   0.00525   293.989   686.719   1.046   1.046   0.042   0.042   0.000   0.000
0.01875   0.00525   294.377   686.719   1.046   1.046   0.042   0.042   0.000   0.000
0.02125   0.00525   294.897   686.719   1.046   1.046   0.042   0.042   0.000   0.000
0.02375   0.00525   295.583   686.719   1.046   1.046   0.042   0.042   0.000   0.000
0.02625   0.00525   296.470   686.719   1.046   1.046   0.042   0.042   0.000   0.000
0.02875   0.00525   297.583   686.719   1.046   1.046   0.042   0.042   0.000   0.000
0.03125   0.00525   298.874   686.719   1.046   1.046   0.042   0.042   0.000   0.000
0.03375   0.00525   300.116   686.719   1.046   1.046   0.042   0.042   0.000   0.000
0.03625   0.00525   301.266   686.719   1.046   1.046   0.042   0.042   0.000   0.000
0.03875   0.00525   302.358   686.719   1.046   1.046   0.042   0.042   0.000   0.000
0.04125   0.00525   303.441   686.719   1.046   1.046   0.042   0.042   0.000   0.000
0.04375   0.00525   304.586   686.719   1.046   1.046   0.042   0.042   0.000   0.000
0.04625   0.00525   306.301   686.719   1.046   1.046   0.042   0.042   0.000   0.000
0.04875   0.00525   317.283   686.719   1.046   1.046   0.042   0.000   0.000   6.087
0.00125   0.00475   293.066   686.719   1.046   1.046   0.000   0.042   0.000   0.000
0.00375   0.00475   293.079   686.719   1.046   1.046   0.042   0.042   0.000   0.000
0.00625   0.00475   293.106   686.719   1.046   1.046   0.042   0.042   0.000   0.000
0.00875   0.00475   293.152   686.719   1.046   1.046   0.042   0.042   0.000   0.000
0.01125   0.00475   293.222   686.719   1.046   1.046   0.042   0.042   0.000   0.000
0.01375   0.00475   293.323   686.719   1.046   1.046   0.042   0.042   0.000   0.000
0.01625   0.00475   293.469   686.719   1.046   1.046   0.042   0.042   0.000   0.000
0.01875   0.00475   293.672   686.719   1.046   1.046   0.042   0.042   0.000   0.000
0.02125   0.00475   293.952   686.719   1.046   1.046   0.042   0.042   0.000   0.000
0.02375   0.00475   294.331   686.719   1.046   1.046   0.042   0.042   0.000   0.000
0.02625   0.00475   294.836   686.719   1.046   1.046   0.042   0.042   0.000   0.000
0.02875   0.00475   295.484   686.719   1.046   1.046   0.042   0.042   0.000   0.000
0.03125   0.00475   296.256   686.719   1.046   1.046   0.042   0.042   0.000   0.000
0.03375   0.00475   297.037   686.719   1.046   1.046   0.042   0.042   0.000   0.000
0.03625   0.00475   297.813   686.719   1.046   1.046   0.042   0.042   0.000   0.000
0.03875   0.00475   298.612   686.719   1.046   1.046   0.042   0.042   0.000   0.000
0.04125   0.00475   299.475   686.719   1.046   1.046   0.042   0.042   0.000   0.000
0.04375   0.00475   300.464   686.719   1.046   1.046   0.042   0.042   0.000   0.000
0.04625   0.00475   302.079   686.719   1.046   1.046   0.042   0.042   0.000   0.000
0.04875   0.00475   313.016   686.719   1.046   1.046   0.042   0.000   0.000   6.091
0.00125   0.00425   293.037   686.719   1.046   2.085   0.000   0.042   0.000   0.000
0.00375   0.00425   293.045   686.719   1.046   2.085   0.042   0.042   0.000   0.000
0.00625   0.00425   293.061   686.719   1.046   2.085   0.042   0.042   0.000   0.000
0.00875   0.00425   293.088   686.719   1.046   2.085   0.042   0.042   0.000   0.000
0.01125   0.00425   293.130   686.719   1.046   2.085   0.042   0.042   0.000   0.000
0.01375   0.00425   293.191   686.719   1.046   2.085   0.042   0.042   0.000   0.000
0.01625   0.00425   293.279   686.719   1.046   2.085   0.042   0.042   0.000   0.000
0.01875   0.00425   293.403   686.719   1.046   2.085   0.042   0.042   0.000   0.000
0.02125   0.00425   293.574   686.719   1.046   2.085   0.042   0.042   0.000   0.000
0.02375   0.00425   293.805   686.719   1.046   2.085   0.042   0.042   0.000   0.000
0.02625   0.00425   294.114   686.719   1.046   2.085   0.042   0.042   0.000   0.000
0.02875   0.00425   294.514   686.719   1.046   2.085   0.042   0.042   0.000   0.000
0.03125   0.00425   295.009   686.719   1.046   2.085   0.042   0.042   0.000   0.000
0.03375   0.00425   295.573   686.719   1.046   2.085   0.042   0.042   0.000   0.000
0.03625   0.00425   296.213   686.719   1.046   2.085   0.042   0.042   0.000   0.000
0.03875   0.00425   296.950   686.719   1.046   2.085   0.042   0.042   0.000   0.000
0.04125   0.00425   297.811   686.719   1.046   2.085   0.042   0.042   0.000   0.000
0.04375   0.00425   298.831   686.719   1.046   2.085   0.042   0.042   0.000   0.000
0.04625   0.00425   300.239   686.719   1.046   2.085   0.042   0.042   0.000   0.000
0.04875   0.00425   306.621   686.719   1.046   2.085   0.042   0.000   0.000   6.098
0.00125   0.00375   293.045   1137.797   2.085   268.000   0.000   10.720   0.000   0.000
0.00375   0.00375   293.053   1137.797   2.085   268.000   10.720   10.720   0.000   0.000
0.00625   0.00375   293.071   1137.797   2.085   268.000   10.720   10.720   0.000   0.000
0.00875   0.00375   293.099   1137.797   2.085   268.000   10.720   10.720   0.000   0.000
0.01125   0.00375   293.142   1137.797   2.085   268.000   10.720   10.720   0.000   0.000
0.01375   0.00375   293.204   1137.797   2.085   268.000   10.720   10.720   0.000   0.000
0.01625   0.00375   293.290   1137.797   2.085   268.000   10.720   10.720   0.000   0.000
0.01875   0.00375   293.408   1137.797   2.085   268.000   10.720   10.720   0.000   0.000
0.02125   0.00375   293.565   1137.797   2.085   268.000   10.720   10.720   0.000   0.000
0.02375   0.00375   293.773   1137.797   2.085   268.000   10.720   10.720   0.000   0.000
0.02625   0.00375   294.042   1137.797   2.085   268.000   10.720   10.720   0.000   0.000
0.02875   0.00375   294.386   1137.797   2.085   268.000   10.720   10.720   0.000   0.000
0.03125   0.00375   294.817   1137.797   2.085   268.000   10.720   10.720   0.000   0.000
0.03375   0.00375   295.349   1137.797   2.085   268.000   10.720   10.720   0.000   0.000
0.03625   0.00375   295.997   1137.797   2.085   268.000   10.720   10.720   0.000   0.000
0.03875   0.00375   296.777   1137.797   2.085   268.000   10.720   10.720   0.000   0.000
0.04125   0.00375   297.705   1137.797   2.085   268.000   10.720   10.720   0.000   0.000
0.04375   0.00375   298.798   1137.797   2.085   268.000   10.720   10.720   0.000   0.000
0.04625   0.00375   300.077   1137.797   2.085   268.000   10.720   10.720   0.000   0.000
0.04875   0.00375   301.589   1137.797   2.085   268.000   10.720   0.000   0.000   16.273
0.00125   0.00325   293.045   1137.797   268.000   268.000   0.000   10.720   0.000   0.000
0.00375   0.00325   293.053   1137.797   268.000   268.000   10.720   10.720   0.000   0.000
0.00625   0.00325   293.071   1137.797   268.000   268.000   10.720   10.720   0.000   0.000
0.00875   0.00325   293.099   1137.797   268.000   268.000   10.720   10.720   0.000   0.000
0.01125   0.00325   293.142   1137.797   268.000   268.000   10.720   10.720   0.000   0.000
0.01375   0.00325   293.204   1137.797   268.000   268.000   10.720   10.720   0.000   0.000
0.01625   0.00325   293.290   1137.797   268.000   268.000   10.720   10.720   0.000   0.000
0.01875   0.00325   293.408   1137.797   268.000   268.000   10.720   10.720   0.000   0.000
0.02125   0.00325   293.565   1137.797   268.000   268.000   10.720   10.720   0.000   0.000
0.02375   0.00325   293.773   1137.797   268.000   268.000   10.720   10.720   0.000   0.000
0.02625   0.00325   294.042   1137.797   268.000   268.000   10.720   10.720   0.000   0.000
0.02875   0.00325   294.385   1137.797   268.000   268.000   10.720   10.720   0.000   0.000
0.03125   0.00325   294.816   1137.797   268.000   268.000   10.720   10.720   0.000   0.000
0.03375   0.00325   295.347   1137.797   268.000   268.000   10.720   10.720   0.000   0.000
0.03625   0.00325   295.995   1137.797   268.000   268.000   10.720   10.720   0.000   0.000
0.03875   0.00325   296.775   1137.797   268.000   268.000   10.720   10.720   0.000   0.000
0.04125   0.00325   297.704   1137.797   268.000   268.000   10.720   10.720   0.000   0.000
0.04375   0.00325   298.797   1137.797   268.000   268.000   10.720   10.720   0.000   0.000
0.04625   0.00325   300.073   1137.797   268.000   268.000   10.720   10.720   0.000   0.000
0.04875   0.00325   301.557   1137.797   268.000   268.000   10.720   0.000   0.000   16.273
0.00125   0.00275   293.045   1137.797   268.000   268.000   0.000   10.720   0.000   0.000
0.00375   0.00275   293.053   1137.797   268.000   268.000   10.720   10.720   0.000   0.000
0.00625   0.00275   293.071   1137.797   268.000   268.000   10.720   10.720   0.000   0.000
0.00875   0.00275   293.099   1137.797   268.000   268.000   10.720   10.720   0.000   0.000
0.01125   0.00275   293.142   1137.797   268.000   268.000   10.720   10.720   0.000   0.000
0.01375   0.00275   293.204   1137.797   268.000   268.000   10.720   10.720   0.000   0.000
0.01625   0.00275   293.290   1137.797   268.000   268.000   10.720   10.720   0.000   0.000
0.01875   0.00275   293.408   1137.797   268.000   268.000   10.720   10.720   0.000   0.000
0.02125   0.00275   293.565   1137.797   268.000   268.000   10.720   10.720   0.000   0.000
0.02375   0.00275   293.773   1137.797   268.000   268.000   10.720   10.720   0.000   0.000
0.02625   0.00275   294.041   1137.797   268.000   268.000   10.720   10.720   0.000   0.000
0.02875   0.00275   294.384   1137.797   268.000   268.000   10.720   10.720   0.000   0.000
0.03125   0.00275   294.815   1137.797   268.000   268.000   10.720   10.720   0.000   0.000
0.03375   0.00275   295.346   1137.797   268.000   268.000   10.720   10.720   0.000   0.000
0.03625   0.00275   295.994   1137.797   268.000   268.000   10.720   10.720   0.000   0.000
0.03875   0.00275   296.774   1137.797   268.000   268.000   10.720   10.720   0.000   0.000
0.04125   0.00275   297.703   1137.797   268.000   268.000   10.720   10.720   0.000   0.000
0.04375   0.00275   298.797   1137.797   268.000   268.000   10.720   10.720   0.000   0.000
0.04625   0.00275   300.070   1137.797   268.000   268.000   10.720   10.720   0.000   0.000
0.04875   0.00275   301.531   1137.797   268.000   268.000   10.720   0.000   0.000   16.273
0.00125   0.00225   293.045   1137.797   268.000   268.000   0.000   10.720   0.000   0.000
0.00375   0.00225   293.053   1137.797   268.000   268.000   10.720   10.720   0.000   0.000
0.00625   0.00225   293.071   1137.797   268.000   268.000   10.720   10.720   0.000   0.000
0.00875   0.00225   293.099   1137.797   268.000   268.000   10.720   10.720   0.000   0.000
0.01125   0.00225   293.142   1137.797   268.000   268.000   10.720   10.720   0.000   0.000
0.01375   0.00225   293.204   1137.797   268.000   268.000   10.720   10.720   0.000   0.000
0.01625   0.00225   293.290   1137.797   268.000   268.000   10.720   10.720   0.000   0.000
0.01875   0.00225   293.408   1137.797   268.000   268.000   10.720   10.720   0.000   0.000
0.02125   0.00225   293.565   1137.797   268.000   268.000   10.720   10.720   0.000   0.000
0.02375   0.00225   293.772   1137.797   268.000   268.000   10.720   10.720   0.000   0.000
0.02625   0.00225   294.041   1137.797   268.000   268.000   10.720   10.720   0.000   0.000
0.02875   0.00225   294.384   1137.797   268.000   268.000   10.720   10.720   0.000   0.000
0.03125   0.00225   294.814   1137.797   268.000   268.000   10.720   10.720   0.000   0.000
0.03375   0.00225   295.345   1137.797   268.000   268.000   10.720   10.720   0.000   0.000
0.03625   0.00225   295.993   1137.797   268.000   268.000   10.720   10.720   0.000   0.000
0.03875   0.00225   296.774   1137.797   268.000   268.000   10.720   10.720   0.000   0.000
0.04125   0.00225   297.703   1137.797   268.000   268.000   10.720   10.720   0.000   0.000
0.04375   0.00225   298.796   1137.797   268.000   268.000   10.720   10.720   0.000   0.000
0.04625   0.00225   300.065   1137.797   268.000   268.000   10.720   10.720   0.000   0.000
0.04875   0.00225   301.511   1137.797   268.000   268.000   10.720   0.000   0.000   16.273
0.00125   0.00175   293.045   1137.797   268.000   268.000   0.000   10.720   0.000   0.000
0.00375   0.00175   293.053   1137.797   268.000   268.000   10.720   10.720   0.000   0.000
0.00625   0.00175   293.071   1137.797   268.000   268.000   10.720   10.720   0.000   0.000
0.00875   0.00175   293.100   1137.797   268.000   268.000   10.720   10.720   0.000   0.000
0.01125   0.00175   293.143   1137.797   268.000   268.000   10.720   10.720   0.000   0.000
0.01375   0.00175   293.204   1137.797   268.000   268.000   10.720   10.720   0.000   0.000
0.01625   0.00175   293.290   1137.797   268.000   268.000   10.720   10.720   0.000   0.000
0.01875   0.00175   293.408   1137.797   268.000   268.000   10.720   10.720   0.000   0.000
0.02125   0.00175   293.565   1137.797   268.000   268.000   10.720   10.720   0.000   0.000