VARIABLES = X, Y, T, ap,an,as,aw,ae,sp,su
ZONE I=20,J=20, F=POINT,t="26.984"
0.00125   0.00975   299.630   1137.797   0.000   268.000   0.000   10.720   0.000   -0.005
0.00375   0.00975   299.892   1137.797   0.000   268.000   10.720   10.720   0.000   -0.005
0.00625   0.00975   300.418   1137.797   0.000   268.000   10.720   10.720   0.000   -0.006
0.00875   0.00975   301.220   1137.797   0.000   268.000   10.720   10.720   0.000   -0.006
0.01125   0.00975   302.308   1137.797   0.000   268.000   10.720   10.720   0.000   -0.007
0.01375   0.00975   303.699   1137.797   0.000   268.000   10.720   10.720   0.000   -0.008
0.01625   0.00975   305.415   1137.797   0.000   268.000   10.720   10.720   0.000   -0.009
0.01875   0.00975   307.479   1137.797   0.000   268.000   10.720   10.720   0.000   -0.011
0.02125   0.00975   309.918   1137.797   0.000   268.000   10.720   10.720   0.000   -0.013
0.02375   0.00975   312.762   1137.797   0.000   268.000   10.720   10.720   0.000   -0.015
0.02625   0.00975   316.050   1137.797   0.000   268.000   10.720   10.720   0.000   -0.017
0.02875   0.00975   319.863   1137.797   0.000   268.000   10.720   10.720   0.000   -0.020
0.03125   0.00975   324.611   1137.797   0.000   268.000   10.720   10.720   0.000   81.021
0.03375   0.00975   328.515   1137.797   0.000   268.000   10.720   10.720   0.000   80.956
0.03625   0.00975   331.985   1137.797   0.000   268.000   10.720   10.720   0.000   80.897
0.03875   0.00975   335.096   1137.797   0.000   268.000   10.720   10.720   0.000   80.842
0.04125   0.00975   337.881   1137.797   0.000   268.000   10.720   10.720   0.000   80.792
0.04375   0.00975   340.361   1137.797   0.000   268.000   10.720   10.720   0.000   80.747
0.04625   0.00975   342.546   1137.797   0.000   268.000   10.720   10.720   0.000   80.705
0.04875   0.00975   344.421   1137.797   0.000   268.000   10.720   0.000   0.000   96.811
0.00125   0.00925   299.629   1137.797   268.000   268.000   0.000   10.720   0.000   0.000
0.00375   0.00925   299.890   1137.797   268.000   268.000   10.720   10.720   0.000   0.000
0.00625   0.00925   300.417   1137.797   268.000   268.000   10.720   10.720   0.000   0.000
0.00875   0.00925   301.218   1137.797   268.000   268.000   10.720   10.720   0.000   0.000
0.01125   0.00925   302.306   1137.797   268.000   268.000   10.720   10.720   0.000   0.000
0.01375   0.00925   303.697   1137.797   268.000   268.000   10.720   10.720   0.000   0.000
0.01625   0.00925   305.413   1137.797   268.000   268.000   10.720   10.720   0.000   0.000
0.01875   0.00925   307.476   1137.797   268.000   268.000   10.720   10.720   0.000   0.000
0.02125   0.00925   309.915   1137.797   268.000   268.000   10.720   10.720   0.000   0.000
0.02375   0.00925   312.758   1137.797   268.000   268.000   10.720   10.720   0.000   0.000
0.02625   0.00925   316.044   1137.797   268.000   268.000   10.720   10.720   0.000   0.000
0.02875   0.00925   319.841   1137.797   268.000   268.000   10.720   10.720   0.000   0.000
0.03125   0.00925   324.359   1137.797   268.000   268.000   10.720   10.720   0.000   0.000
0.03375   0.00925   328.247   1137.797   268.000   268.000   10.720   10.720   0.000   0.000
0.03625   0.00925   331.715   1137.797   268.000   268.000   10.720   10.720   0.000   0.000
0.03875   0.00925   334.826   1137.797   268.000   268.000   10.720   10.720   0.000   0.000
0.04125   0.00925   337.611   1137.797   268.000   268.000   10.720   10.720   0.000   0.000
0.04375   0.00925   340.091   1137.797   268.000   268.000   10.720   10.720   0.000   0.000
0.04625   0.00925   342.277   1137.797   268.000   268.000   10.720   10.720   0.000   0.000
0.04875   0.00925   344.155   1137.797   268.000   268.000   10.720   0.000   0.000   16.143
0.00125   0.00875   299.626   1137.797   268.000   268.000   0.000   10.720   0.000   0.000
0.00375   0.00875   299.887   1137.797   268.000   268.000   10.720   10.720   0.000   0.000
0.00625   0.00875   300.414   1137.797   268.000   268.000   10.720   10.720   0.000   0.000
0.00875   0.00875   301.214   1137.797   268.000   268.000   10.720   10.720   0.000   0.000
0.01125   0.00875   302.302   1137.797   268.000   268.000   10.720   10.720   0.000   0.000
0.01375   0.00875   303.693   1137.797   268.000   268.000   10.720   10.720   0.000   0.000
0.01625   0.00875   305.408   1137.797   268.000   268.000   10.720   10.720   0.000   0.000
0.01875   0.00875   307.471   1137.797   268.000   268.000   10.720   10.720   0.000   0.000
0.02125   0.00875   309.908   1137.797   268.000   268.000   10.720   10.720   0.000   0.000
0.02375   0.00875   312.750   1137.797   268.000   268.000   10.720   10.720   0.000   0.000
0.02625   0.00875   316.032   1137.797   268.000   268.000   10.720   10.720   0.000   0.000
0.02875   0.00875   319.806   1137.797   268.000   268.000   10.720   10.720   0.000   0.000
0.03125   0.00875   324.149   1137.797   268.000   268.000   10.720   10.720   0.000   0.000
0.03375   0.00875   328.014   1137.797   268.000   268.000   10.720   10.720   0.000   0.000
0.03625   0.00875   331.478   1137.797   268.000   268.000   10.720   10.720   0.000   0.000
0.03875   0.00875   334.588   1137.797   268.000   268.000   10.720   10.720   0.000   0.000
0.04125   0.00875   337.372   1137.797   268.000   268.000   10.720   10.720   0.000   0.000
0.04375   0.00875   339.853   1137.797   268.000   268.000   10.720   10.720   0.000   0.000
0.04625   0.00875   342.040   1137.797   268.000   268.000   10.720   10.720   0.000   0.000
0.04875   0.00875   343.924   1137.797   268.000   268.000   10.720   0.000   0.000   16.143
0.00125   0.00825   299.621   1137.797   268.000   268.000   0.000   10.720   0.000   0.000
0.00375   0.00825   299.882   1137.797   268.000   268.000   10.720   10.720   0.000   0.000
0.00625   0.00825   300.409   1137.797   268.000   268.000   10.720   10.720   0.000   0.000
0.00875   0.00825   301.209   1137.797   268.000   268.000   10.720   10.720   0.000   0.000
0.01125   0.00825   302.296   1137.797   268.000   268.000   10.720   10.720   0.000   0.000
0.01375   0.00825   303.686   1137.797   268.000   268.000   10.720   10.720   0.000   0.000
0.01625   0.00825   305.401   1137.797   268.000   268.000   10.720   10.720   0.000   0.000
0.01875   0.00825   307.463   1137.797   268.000   268.000   10.720   10.720   0.000   0.000
0.02125   0.00825   309.899   1137.797   268.000   268.000   10.720   10.720   0.000   0.000
0.02375   0.00825   312.739   1137.797   268.000   268.000   10.720   10.720   0.000   0.000
0.02625   0.00825   316.016   1137.797   268.000   268.000   10.720   10.720   0.000   0.000
0.02875   0.00825   319.764   1137.797   268.000   268.000   10.720   10.720   0.000   0.000
0.03125   0.00825   323.974   1137.797   268.000   268.000   10.720   10.720   0.000   0.000
0.03375   0.00825   327.814   1137.797   268.000   268.000   10.720   10.720   0.000   0.000
0.03625   0.00825   331.273   1137.797   268.000   268.000   10.720   10.720   0.000   0.000
0.03875   0.00825   334.381   1137.797   268.000   268.000   10.720   10.720   0.000   0.000
0.04125   0.00825   337.165   1137.797   268.000   268.000   10.720   10.720   0.000   0.000
0.04375   0.00825   339.645   1137.797   268.000   268.000   10.720   10.720   0.000   0.000
0.04625   0.00825   341.835   1137.797   268.000   268.000   10.720   10.720   0.000   0.000
0.04875   0.00825   343.727   1137.797   268.000   268.000   10.720   0.000   0.000   16.144
0.00125   0.00775   299.615   1137.797   268.000   268.000   0.000   10.720   0.000   0.000
0.00375   0.00775   299.876   1137.797   268.000   268.000   10.720   10.720   0.000   0.000
0.00625   0.00775   300.402   1137.797   268.000   268.000   10.720   10.720   0.000   0.000
0.00875   0.00775   301.202   1137.797   268.000   268.000   10.720   10.720   0.000   0.000
0.01125   0.00775   302.288   1137.797   268.000   268.000   10.720   10.720   0.000   0.000
0.01375   0.00775   303.678   1137.797   268.000   268.000   10.720   10.720   0.000   0.000
0.01625   0.00775   305.391   1137.797   268.000   268.000   10.720   10.720   0.000   0.000
0.01875   0.00775   307.452   1137.797   268.000   268.000   10.720   10.720   0.000   0.000
0.02125   0.00775   309.886   1137.797   268.000   268.000   10.720   10.720   0.000   0.000
0.02375   0.00775   312.724   1137.797   268.000   268.000   10.720   10.720   0.000   0.000
0.02625   0.00775   315.995   1137.797   268.000   268.000   10.720   10.720   0.000   0.000
0.02875   0.00775   319.719   1137.797   268.000   268.000   10.720   10.720   0.000   0.000
0.03125   0.00775   323.831   1137.797   268.000   268.000   10.720   10.720   0.000   0.000
0.03375   0.00775   327.647   1137.797   268.000   268.000   10.720   10.720   0.000   0.000
0.03625   0.00775   331.100   1137.797   268.000   268.000   10.720   10.720   0.000   0.000
0.03875   0.00775   334.206   1137.797   268.000   268.000   10.720   10.720   0.000   0.000
0.04125   0.00775   336.989   1137.797   268.000   268.000   10.720   10.720   0.000   0.000
0.04375   0.00775   339.469   1137.797   268.000   268.000   10.720   10.720   0.000   0.000
0.04625   0.00775   341.662   1137.797   268.000   268.000   10.720   10.720   0.000   0.000
0.04875   0.00775   343.567   1137.797   268.000   268.000   10.720   0.000   0.000   16.145
0.00125   0.00725   299.608   1137.797   268.000   268.000   0.000   10.720   0.000   0.000
0.00375   0.00725   299.868   1137.797   268.000   268.000   10.720   10.720   0.000   0.000
0.00625   0.00725   300.394   1137.797   268.000   268.000   10.720   10.720   0.000   0.000
0.00875   0.00725   301.193   1137.797   268.000   268.000   10.720   10.720   0.000   0.000
0.01125   0.00725   302.278   1137.797   268.000   268.000   10.720   10.720   0.000   0.000
0.01375   0.00725   303.667   1137.797   268.000   268.000   10.720   10.720   0.000   0.000
0.01625   0.00725   305.379   1137.797   268.000   268.000   10.720   10.720   0.000   0.000
0.01875   0.00725   307.438   1137.797   268.000   268.000   10.720   10.720   0.000   0.000
0.02125   0.00725   309.871   1137.797   268.000   268.000   10.720   10.720   0.000   0.000
0.02375   0.00725   312.706   1137.797   268.000   268.000   10.720   10.720   0.000   0.000
0.02625   0.00725   315.971   1137.797   268.000   268.000   10.720   10.720   0.000   0.000
0.02875   0.00725   319.674   1137.797   268.000   268.000   10.720   10.720   0.000   0.000
0.03125   0.00725   323.715   1137.797   268.000   268.000   10.720   10.720   0.000   0.000
0.03375   0.00725   327.511   1137.797   268.000   268.000   10.720   10.720   0.000   0.000
0.03625   0.00725   330.958   1137.797   268.000   268.000   10.720   10.720   0.000   0.000
0.03875   0.00725   334.062   1137.797   268.000   268.000   10.720   10.720   0.000   0.000
0.04125   0.00725   336.844   1137.797   268.000   268.000   10.720   10.720   0.000   0.000
0.04375   0.00725   339.324   1137.797   268.000   268.000   10.720   10.720   0.000   0.000
0.04625   0.00725   341.521   1137.797   268.000   268.000   10.720   10.720   0.000   0.000
0.04875   0.00725   343.442   1137.797   268.000   268.000   10.720   0.000   0.000   16.145
0.00125   0.00675   299.598   1137.797   268.000   268.000   0.000   10.720   0.000   0.000
0.00375   0.00675   299.859   1137.797   268.000   268.000   10.720   10.720   0.000   0.000
0.00625   0.00675   300.384   1137.797   268.000   268.000   10.720   10.720   0.000   0.000
0.00875   0.00675   301.182   1137.797   268.000   268.000   10.720   10.720   0.000   0.000
0.01125   0.00675   302.267   1137.797   268.000   268.000   10.720   10.720   0.000   0.000
0.01375   0.00675   303.654   1137.797   268.000   268.000   10.720   10.720   0.000   0.000
0.01625   0.00675   305.364   1137.797   268.000   268.000   10.720   10.720   0.000   0.000
0.01875   0.00675   307.422   1137.797   268.000   268.000   10.720   10.720   0.000   0.000
0.02125   0.00675   309.852   1137.797   268.000   268.000   10.720   10.720   0.000   0.000
0.02375   0.00675   312.685   1137.797   268.000   268.000   10.720   10.720   0.000   0.000
0.02625   0.00675   315.944   1137.797   268.000   268.000   10.720   10.720   0.000   0.000
0.02875   0.00675   319.632   1137.797   268.000   268.000   10.720   10.720   0.000   0.000
0.03125   0.00675   323.626   1137.797   268.000   268.000   10.720   10.720   0.000   0.000
0.03375   0.00675   327.407   1137.797   268.000   268.000   10.720   10.720   0.000   0.000
0.03625   0.00675   330.849   1137.797   268.000   268.000   10.720   10.720   0.000   0.000
0.03875   0.00675   333.951   1137.797   268.000   268.000   10.720   10.720   0.000   0.000
0.04125   0.00675   336.731   1137.797   268.000   268.000   10.720   10.720   0.000   0.000
0.04375   0.00675   339.210   1137.797   268.000   268.000   10.720   10.720   0.000   0.000
0.04625   0.00675   341.410   1137.797   268.000   268.000   10.720   10.720   0.000   0.000
0.04875   0.00675   343.353   1137.797   268.000   268.000   10.720   0.000   0.000   16.146
0.00125   0.00625   299.588   1137.797   268.000   2.085   0.000   10.720   0.000   0.000
0.00375   0.00625   299.848   1137.797   268.000   2.085   10.720   10.720   0.000   0.000
0.00625   0.00625   300.372   1137.797   268.000   2.085   10.720   10.720   0.000   0.000
0.00875   0.00625   301.170   1137.797   268.000   2.085   10.720   10.720   0.000   0.000
0.01125   0.00625   302.253   1137.797   268.000   2.085   10.720   10.720   0.000   0.000
0.01375   0.00625   303.639   1137.797   268.000   2.085   10.720   10.720   0.000   0.000
0.01625   0.00625   305.347   1137.797   268.000   2.085   10.720   10.720   0.000   0.000
0.01875   0.00625   307.402   1137.797   268.000   2.085   10.720   10.720   0.000   0.000
0.02125   0.00625   309.831   1137.797   268.000   2.085   10.720   10.720   0.000   0.000
0.02375   0.00625   312.660   1137.797   268.000   2.085   10.720   10.720   0.000   0.000
0.02625   0.00625   315.915   1137.797   268.000   2.085   10.720   10.720   0.000   0.000
0.02875   0.00625   319.593   1137.797   268.000   2.085   10.720   10.720   0.000   0.000
0.03125   0.00625   323.563   1137.797   268.000   2.085   10.720   10.720   0.000   0.000
0.03375   0.00625   327.333   1137.797   268.000   2.085   10.720   10.720   0.000   0.000
0.03625   0.00625   330.771   1137.797   268.000   2.085   10.720   10.720   0.000   0.000
0.03875   0.00625   333.870   1137.797   268.000   2.085   10.720   10.720   0.000   0.000
0.04125   0.00625   336.648   1137.797   268.000   2.085   10.720   10.720   0.000   0.000
0.04375   0.00625   339.127   1137.797   268.000   2.085   10.720   10.720   0.000   0.000
0.04625   0.00625   341.329   1137.797   268.000   2.085   10.720   10.720   0.000   0.000
0.04875   0.00625   343.302   1137.797   268.000   2.085   10.720   0.000   0.000   16.146
0.00125   0.00575   298.023   686.719   2.085   1.046   0.000   0.042   0.000   0.000
0.00375   0.00575   298.239   686.719   2.085   1.046   0.042   0.042   0.000   0.000
0.00625   0.00575   298.675   686.719   2.085   1.046   0.042   0.042   0.000   0.000
0.00875   0.00575   299.341   686.719   2.085   1.046   0.042   0.042   0.000   0.000
0.01125   0.00575   300.247   686.719   2.085   1.046   0.042   0.042   0.000   0.000
0.01375   0.00575   301.411   686.719   2.085   1.046   0.042   0.042   0.000   0.000
0.01625   0.00575   302.852   686.719   2.085   1.046   0.042   0.042   0.000   0.000
0.01875   0.00575   304.594   686.719   2.085   1.046   0.042   0.042   0.000   0.000
0.02125   0.00575   306.663   686.719   2.085   1.046   0.042   0.042   0.000   0.000
0.02375   0.00575   309.085   686.719   2.085   1.046   0.042   0.042   0.000   0.000
0.02625   0.00575   311.885   686.719   2.085   1.046   0.042   0.042   0.000   0.000
0.02875   0.00575   315.062   686.719   2.085   1.046   0.042   0.042   0.000   0.000
0.03125   0.00575   318.500   686.719   2.085   1.046   0.042   0.042   0.000   0.000
0.03375   0.00575   321.789   686.719   2.085   1.046   0.042   0.042   0.000   0.000
0.03625   0.00575   324.812   686.719   2.085   1.046   0.042   0.042   0.000   0.000
0.03875   0.00575   327.564   686.719   2.085   1.046   0.042   0.042   0.000   0.000
0.04125   0.00575   330.064   686.719   2.085   1.046   0.042   0.042   0.000   0.000
0.04375   0.00575   332.349   686.719   2.085   1.046   0.042   0.042   0.000   0.000
0.04625   0.00575   334.681   686.719   2.085   1.046   0.042   0.042   0.000   0.000
0.04875   0.00575   341.735   686.719   2.085   1.046   0.042   0.000   0.000   6.057
0.00125   0.00525   296.049   686.719   1.046   1.046   0.000   0.042   0.000   0.000
0.00375   0.00525   296.198   686.719   1.046   1.046   0.042   0.042   0.000   0.000
0.00625   0.00525   296.499   686.719   1.046   1.046   0.042   0.042   0.000   0.000
0.00875   0.00525   296.961   686.719   1.046   1.046   0.042   0.042   0.000   0.000
0.01125   0.00525   297.593   686.719   1.046   1.046   0.042   0.042   0.000   0.000
0.01375   0.00525   298.409   686.719   1.046   1.046   0.042   0.042   0.000   0.000
0.01625   0.00525   299.426   686.719   1.046   1.046   0.042   0.042   0.000   0.000
0.01875   0.00525   300.665   686.719   1.046   1.046   0.042   0.042   0.000   0.000
0.02125   0.00525   302.146   686.719   1.046   1.046   0.042   0.042   0.000   0.000
0.02375   0.00525   303.895   686.719   1.046   1.046   0.042   0.042   0.000   0.000
0.02625   0.00525   305.931   686.719   1.046   1.046   0.042   0.042   0.000   0.000
0.02875   0.00525   308.257   686.719   1.046   1.046   0.042   0.042   0.000   0.000
0.03125   0.00525   310.790   686.719   1.046   1.046   0.042   0.042   0.000   0.000
0.03375   0.00525   313.256   686.719   1.046   1.046   0.042   0.042   0.000   0.000
0.03625   0.00525   315.574   686.719   1.046   1.046   0.042   0.042   0.000   0.000
0.03875   0.00525   317.741   686.719   1.046   1.046   0.042   0.042   0.000   0.000
0.04125   0.00525   319.778   686.719   1.046   1.046   0.042   0.042   0.000   0.000
0.04375   0.00525   321.735   686.719   1.046   1.046   0.042   0.042   0.000   0.000
0.04625   0.00525   324.190   686.719   1.046   1.046   0.042   0.042   0.000   0.000
0.04875   0.00525   336.075   686.719   1.046   1.046   0.042   0.000   0.000   6.064
0.00125   0.00475   294.881   686.719   1.046   1.046   0.000   0.042   0.000   0.000
0.00375   0.00475   294.981   686.719   1.046   1.046   0.042   0.042   0.000   0.000
0.00625   0.00475   295.185   686.719   1.046   1.046   0.042   0.042   0.000   0.000
0.00875   0.00475   295.497   686.719   1.046   1.046   0.042   0.042   0.000   0.000
0.01125   0.00475   295.924   686.719   1.046   1.046   0.042   0.042   0.000   0.000
0.01375   0.00475   296.479   686.719   1.046   1.046   0.042   0.042   0.000   0.000
0.01625   0.00475   297.173   686.719   1.046   1.046   0.042   0.042   0.000   0.000
0.01875   0.00475   298.020   686.719   1.046   1.046   0.042   0.042   0.000   0.000
0.02125   0.00475   299.038   686.719   1.046   1.046   0.042   0.042   0.000   0.000
0.02375   0.00475   300.244   686.719   1.046   1.046   0.042   0.042   0.000   0.000
0.02625   0.00475   301.653   686.719   1.046   1.046   0.042   0.042   0.000   0.000
0.02875   0.00475   303.269   686.719   1.046   1.046   0.042   0.042   0.000   0.000
0.03125   0.00475   305.043   686.719   1.046   1.046   0.042   0.042   0.000   0.000
0.03375   0.00475   306.821   686.719   1.046   1.046   0.042   0.042   0.000   0.000
0.03625   0.00475   308.554   686.719   1.046   1.046   0.042   0.042   0.000   0.000
0.03875   0.00475   310.244   686.719   1.046   1.046   0.042   0.042   0.000   0.000
0.04125   0.00475   311.905   686.719   1.046   1.046   0.042   0.042   0.000   0.000
0.04375   0.00475   313.587   686.719   1.046   1.046   0.042   0.042   0.000   0.000
0.04625   0.00475   315.860   686.719   1.046   1.046   0.042   0.042   0.000   0.000
0.04875   0.00475   327.663   686.719   1.046   1.046   0.042   0.000   0.000   6.075
0.00125   0.00425   294.276   686.719   1.046   2.085   0.000   0.042   0.000   0.000
0.00375   0.00425   294.342   686.719   1.046   2.085   0.042   0.042   0.000   0.000
0.00625   0.00425   294.476   686.719   1.046   2.085   0.042   0.042   0.000   0.000
0.00875   0.00425   294.682   686.719   1.046   2.085   0.042   0.042   0.000   0.000
0.01125   0.00425   294.963   686.719   1.046   2.085   0.042   0.042   0.000   0.000
0.01375   0.00425   295.326   686.719   1.046   2.085   0.042   0.042   0.000   0.000
0.01625   0.00425   295.778   686.719   1.046   2.085   0.042   0.042   0.000   0.000
0.01875   0.00425   296.328   686.719   1.046   2.085   0.042   0.042   0.000   0.000
0.02125   0.00425   296.983   686.719   1.046   2.085   0.042   0.042   0.000   0.000
0.02375   0.00425   297.754   686.719   1.046   2.085   0.042   0.042   0.000   0.000
0.02625   0.00425   298.649   686.719   1.046   2.085   0.042   0.042   0.000   0.000
0.02875   0.00425   299.672   686.719   1.046   2.085   0.042   0.042   0.000   0.000
0.03125   0.00425   300.808   686.719   1.046   2.085   0.042   0.042   0.000   0.000
0.03375   0.00425   302.009   686.719   1.046   2.085   0.042   0.042   0.000   0.000
0.03625   0.00425   303.259   686.719   1.046   2.085   0.042   0.042   0.000   0.000
0.03875   0.00425   304.562   686.719   1.046   2.085   0.042   0.042   0.000   0.000
0.04125   0.00425   305.925   686.719   1.046   2.085   0.042   0.042   0.000   0.000
0.04375   0.00425   307.370   686.719   1.046   2.085   0.042   0.042   0.000   0.000
0.04625   0.00425   309.151   686.719   1.046   2.085   0.042   0.042   0.000   0.000
0.04875   0.00425   315.947   686.719   1.046   2.085   0.042   0.000   0.000   6.088
0.00125   0.00375   294.172   1137.797   2.085   268.000   0.000   10.720   0.000   0.000
0.00375   0.00375   294.227   1137.797   2.085   268.000   10.720   10.720   0.000   0.000
0.00625   0.00375   294.337   1137.797   2.085   268.000   10.720   10.720   0.000   0.000
0.00875   0.00375   294.504   1137.797   2.085   268.000   10.720   10.720   0.000   0.000
0.01125   0.00375   294.732   1137.797   2.085   268.000   10.720   10.720   0.000   0.000
0.01375   0.00375   295.023   1137.797   2.085   268.000   10.720   10.720   0.000   0.000
0.01625   0.00375   295.382   1137.797   2.085   268.000   10.720   10.720   0.000   0.000
0.01875   0.00375   295.813   1137.797   2.085   268.000   10.720   10.720   0.000   0.000
0.02125   0.00375   296.322   1137.797   2.085   268.000   10.720   10.720   0.000   0.000
0.02375   0.00375   296.911   1137.797   2.085   268.000   10.720   10.720   0.000   0.000
0.02625   0.00375   297.587   1137.797   2.085   268.000   10.720   10.720   0.000   0.000
0.02875   0.00375   298.351   1137.797   2.085   268.000   10.720   10.720   0.000   0.000
0.03125   0.00375   299.207   1137.797   2.085   268.000   10.720   10.720   0.000   0.000
0.03375   0.00375   300.155   1137.797   2.085   268.000   10.720   10.720   0.000   0.000
0.03625   0.00375   301.197   1137.797   2.085   268.000   10.720   10.720   0.000   0.000
0.03875   0.00375   302.336   1137.797   2.085   268.000   10.720   10.720   0.000   0.000
0.04125   0.00375   303.574   1137.797   2.085   268.000   10.720   10.720   0.000   0.000
0.04375   0.00375   304.916   1137.797   2.085   268.000   10.720   10.720   0.000   0.000
0.04625   0.00375   306.372   1137.797   2.085   268.000   10.720   10.720   0.000   0.000
0.04875   0.00375   307.980   1137.797   2.085   268.000   10.720   0.000   0.000   16.257
0.00125   0.00325   294.171   1137.797   268.000   268.000   0.000   10.720   0.000   0.000
0.00375   0.00325   294.226   1137.797   268.000   268.000   10.720   10.720   0.000   0.000
0.00625   0.00325   294.336   1137.797   268.000   268.000   10.720   10.720   0.000   0.000
0.00875   0.00325   294.503   1137.797   268.000   268.000   10.720   10.720   0.000   0.000
0.01125   0.00325   294.730   1137.797   268.000   268.000   10.720   10.720   0.000   0.000
0.01375   0.00325   295.021   1137.797   268.000   268.000   10.720   10.720   0.000   0.000
0.01625   0.00325   295.379   1137.797   268.000   268.000   10.720   10.720   0.000   0.000
0.01875   0.00325   295.810   1137.797   268.000   268.000   10.720   10.720   0.000   0.000
0.02125   0.00325   296.317   1137.797   268.000   268.000   10.720   10.720   0.000   0.000
0.02375   0.00325   296.906   1137.797   268.000   268.000   10.720   10.720   0.000   0.000
0.02625   0.00325   297.579   1137.797   268.000   268.000   10.720   10.720   0.000   0.000
0.02875   0.00325   298.342   1137.797   268.000   268.000   10.720   10.720   0.000   0.000
0.03125   0.00325   299.196   1137.797   268.000   268.000   10.720   10.720   0.000   0.000
0.03375   0.00325   300.143   1137.797   268.000   268.000   10.720   10.720   0.000   0.000
0.03625   0.00325   301.183   1137.797   268.000   268.000   10.720   10.720   0.000   0.000
0.03875   0.00325   302.321   1137.797   268.000   268.000   10.720   10.720   0.000   0.000
0.04125   0.00325   303.558   1137.797   268.000   268.000   10.720   10.720   0.000   0.000
0.04375   0.00325   304.899   1137.797   268.000   268.000   10.720   10.720   0.000   0.000
0.04625   0.00325   306.351   1137.797   268.000   268.000   10.720   10.720   0.000   0.000
0.04875   0.00325   307.928   1137.797   268.000   268.000   10.720   0.000   0.000   16.257
0.00125   0.00275   294.171   1137.797   268.000   268.000   0.000   10.720   0.000   0.000
0.00375   0.00275   294.225   1137.797   268.000   268.000   10.720   10.720   0.000   0.000
0.00625   0.00275   294.335   1137.797   268.000   268.000   10.720   10.720   0.000   0.000
0.00875   0.00275   294.502   1137.797   268.000   268.000   10.720   10.720   0.000   0.000
0.01125   0.00275   294.729   1137.797   268.000   268.000   10.720   10.720   0.000   0.000
0.01375   0.00275   295.019   1137.797   268.000   268.000   10.720   10.720   0.000   0.000
0.01625   0.00275   295.377   1137.797   268.000   268.000   10.720   10.720   0.000   0.000
0.01875   0.00275   295.807   1137.797   268.000   268.000   10.720   10.720   0.000   0.000
0.02125   0.00275   296.313   1137.797   268.000   268.000   10.720   10.720   0.000   0.000
0.02375   0.00275   296.901   1137.797   268.000   268.000   10.720   10.720   0.000   0.000
0.02625   0.00275   297.573   1137.797   268.000   268.000   10.720   10.720   0.000   0.000
0.02875   0.00275   298.335   1137.797   268.000   268.000   10.720   10.720   0.000   0.000
0.03125   0.00275   299.187   1137.797   268.000   268.000   10.720   10.720   0.000   0.000
0.03375   0.00275   300.132   1137.797   268.000   268.000   10.720   10.720   0.000   0.000
0.03625   0.00275   301.171   1137.797   268.000   268.000   10.720   10.720   0.000   0.000
0.03875   0.00275   302.308   1137.797   268.000   268.000   10.720   10.720   0.000   0.000
0.04125   0.00275   303.545   1137.797   268.000   268.000   10.720   10.720   0.000   0.000
0.04375   0.00275   304.884   1137.797   268.000   268.000   10.720   10.720   0.000   0.000
0.04625   0.00275   306.331   1137.797   268.000   268.000   10.720   10.720   0.000   0.000
0.04875   0.00275   307.886   1137.797   268.000   268.000   10.720   0.000   0.000   16.257
0.00125   0.00225   294.170   1137.797   268.000   268.000   0.000   10.720   0.000   0.000
0.00375   0.00225   294.225   1137.797   268.000   268.000   10.720   10.720   0.000   0.000
0.00625   0.00225   294.334   1137.797   268.000   268.000   10.720   10.720   0.000   0.000
0.00875   0.00225   294.501   1137.797   268.000   268.000   10.720   10.720   0.000   0.000
0.01125   0.00225   294.728   1137.797   268.000   268.000   10.720   10.720   0.000   0.000
0.01375   0.00225   295.018   1137.797   268.000   268.000   10.720   10.720   0.000   0.000
0.01625   0.00225   295.375   1137.797   268.000   268.000   10.720   10.720   0.000   0.000
0.01875   0.00225   295.804   1137.797   268.000   268.000   10.720   10.720   0.000   0.000
0.02125   0.00225   296.310   1137.797   268.000   268.000   10.720   10.720   0.000   0.000
0.02375   0.00225   296.896   1137.797   268.000   268.000   10.720   10.720   0.000   0.000
0.02625   0.00225   297.568   1137.797   268.000   268.000   10.720   10.720   0.000   0.000
0.02875   0.00225   298.328   1137.797   268.000   268.000   10.720   10.720   0.000   0.000
0.03125   0.00225   299.179   1137.797   268.000   268.000   10.720   10.720   0.000   0.000
0.03375   0.00225   300.123   1137.797   268.000   268.000   10.720   10.720   0.000   0.000
0.03625   0.00225   301.161   1137.797   268.000   268.000   10.720   10.720   0.000   0.000
0.03875   0.00225   302.297   1137.797   268.000   268.000   10.720   10.720   0.000   0.000
0.04125   0.00225   303.533   1137.797   268.000   268.000   10.720   10.720   0.000   0.000
0.04375   0.00225   304.872   1137.797   268.000   268.000   10.720   10.720   0.000   0.000
0.04625   0.00225   306.314   1137.797   268.000   268.000   10.720   10.720   0.000   0.000
0.04875   0.00225   307.852   1137.797   268.000   268.000   10.720   0.000   0.000   16.257
0.00125   0.00175   294.170   1137.797   268.000   268.000   0.000   10.720   0.000   0.000
0.00375   0.00175   294.224   1137.797   268.000   268.000   10.720   10.720   0.000   0.000
0.00625   0.00175   294.334   1137.797   268.000   268.000   10.720   10.720   0.000   0.000
0.00875   0.00175   294.500   1137.797   268.000   268.000   10.720   10.720   0.000   0.000
0.01125   0.00175   294.727   1137.797   268.000   268.000   10.720   10.720   0.000   0.000
0.01375   0.00175   295.016   1137.797   268.000   268.000   10.720   10.720   0.000   0.000
0.01625   0.00175   295.374   1137.797   268.000   268.000   10.720   10.720   0.000   0.000
0.01875   0.00175   295.802   1137.797   268.000   268.000   10.720   10.720   0.000   0.000
0.02125   0.00175   296.307   1137.797   268.000   268.000   10.720   10.720   0.000   0.000