VARIABLES = X, Y, T, ap,an,as,aw,ae,sp,su
ZONE I=20,J=20, F=POINT,t="28.496"
0.00125   0.00975   300.440   1137.797   0.000   268.000   0.000   10.720   0.000   -0.006
0.00375   0.00975   300.712   1137.797   0.000   268.000   10.720   10.720   0.000   -0.006
0.00625   0.00975   301.261   1137.797   0.000   268.000   10.720   10.720   0.000   -0.006
0.00875   0.00975   302.095   1137.797   0.000   268.000   10.720   10.720   0.000   -0.007
0.01125   0.00975   303.225   1137.797   0.000   268.000   10.720   10.720   0.000   -0.008
0.01375   0.00975   304.669   1137.797   0.000   268.000   10.720   10.720   0.000   -0.009
0.01625   0.00975   306.443   1137.797   0.000   268.000   10.720   10.720   0.000   -0.010
0.01875   0.00975   308.573   1137.797   0.000   268.000   10.720   10.720   0.000   -0.012
0.02125   0.00975   311.081   1137.797   0.000   268.000   10.720   10.720   0.000   -0.014
0.02375   0.00975   313.999   1137.797   0.000   268.000   10.720   10.720   0.000   -0.016
0.02625   0.00975   317.361   1137.797   0.000   268.000   10.720   10.720   0.000   -0.018
0.02875   0.00975   321.248   1137.797   0.000   268.000   10.720   10.720   0.000   -0.021
0.03125   0.00975   326.067   1137.797   0.000   268.000   10.720   10.720   0.000   80.997
0.03375   0.00975   330.038   1137.797   0.000   268.000   10.720   10.720   0.000   80.931
0.03625   0.00975   333.570   1137.797   0.000   268.000   10.720   10.720   0.000   80.869
0.03875   0.00975   336.735   1137.797   0.000   268.000   10.720   10.720   0.000   80.813
0.04125   0.00975   339.565   1137.797   0.000   268.000   10.720   10.720   0.000   80.761
0.04375   0.00975   342.080   1137.797   0.000   268.000   10.720   10.720   0.000   80.714
0.04625   0.00975   344.288   1137.797   0.000   268.000   10.720   10.720   0.000   80.672
0.04875   0.00975   346.175   1137.797   0.000   268.000   10.720   0.000   0.000   96.771
0.00125   0.00925   300.438   1137.797   268.000   268.000   0.000   10.720   0.000   0.000
0.00375   0.00925   300.710   1137.797   268.000   268.000   10.720   10.720   0.000   0.000
0.00625   0.00925   301.259   1137.797   268.000   268.000   10.720   10.720   0.000   0.000
0.00875   0.00925   302.093   1137.797   268.000   268.000   10.720   10.720   0.000   0.000
0.01125   0.00925   303.223   1137.797   268.000   268.000   10.720   10.720   0.000   0.000
0.01375   0.00925   304.666   1137.797   268.000   268.000   10.720   10.720   0.000   0.000
0.01625   0.00925   306.441   1137.797   268.000   268.000   10.720   10.720   0.000   0.000
0.01875   0.00925   308.570   1137.797   268.000   268.000   10.720   10.720   0.000   0.000
0.02125   0.00925   311.078   1137.797   268.000   268.000   10.720   10.720   0.000   0.000
0.02375   0.00925   313.995   1137.797   268.000   268.000   10.720   10.720   0.000   0.000
0.02625   0.00925   317.355   1137.797   268.000   268.000   10.720   10.720   0.000   0.000
0.02875   0.00925   321.226   1137.797   268.000   268.000   10.720   10.720   0.000   0.000
0.03125   0.00925   325.815   1137.797   268.000   268.000   10.720   10.720   0.000   0.000
0.03375   0.00925   329.771   1137.797   268.000   268.000   10.720   10.720   0.000   0.000
0.03625   0.00925   333.300   1137.797   268.000   268.000   10.720   10.720   0.000   0.000
0.03875   0.00925   336.465   1137.797   268.000   268.000   10.720   10.720   0.000   0.000
0.04125   0.00925   339.295   1137.797   268.000   268.000   10.720   10.720   0.000   0.000
0.04375   0.00925   341.810   1137.797   268.000   268.000   10.720   10.720   0.000   0.000
0.04625   0.00925   344.019   1137.797   268.000   268.000   10.720   10.720   0.000   0.000
0.04875   0.00925   345.909   1137.797   268.000   268.000   10.720   0.000   0.000   16.136
0.00125   0.00875   300.435   1137.797   268.000   268.000   0.000   10.720   0.000   0.000
0.00375   0.00875   300.707   1137.797   268.000   268.000   10.720   10.720   0.000   0.000
0.00625   0.00875   301.256   1137.797   268.000   268.000   10.720   10.720   0.000   0.000
0.00875   0.00875   302.089   1137.797   268.000   268.000   10.720   10.720   0.000   0.000
0.01125   0.00875   303.219   1137.797   268.000   268.000   10.720   10.720   0.000   0.000
0.01375   0.00875   304.662   1137.797   268.000   268.000   10.720   10.720   0.000   0.000
0.01625   0.00875   306.436   1137.797   268.000   268.000   10.720   10.720   0.000   0.000
0.01875   0.00875   308.564   1137.797   268.000   268.000   10.720   10.720   0.000   0.000
0.02125   0.00875   311.072   1137.797   268.000   268.000   10.720   10.720   0.000   0.000
0.02375   0.00875   313.987   1137.797   268.000   268.000   10.720   10.720   0.000   0.000
0.02625   0.00875   317.343   1137.797   268.000   268.000   10.720   10.720   0.000   0.000
0.02875   0.00875   321.191   1137.797   268.000   268.000   10.720   10.720   0.000   0.000
0.03125   0.00875   325.605   1137.797   268.000   268.000   10.720   10.720   0.000   0.000
0.03375   0.00875   329.537   1137.797   268.000   268.000   10.720   10.720   0.000   0.000
0.03625   0.00875   333.063   1137.797   268.000   268.000   10.720   10.720   0.000   0.000
0.03875   0.00875   336.227   1137.797   268.000   268.000   10.720   10.720   0.000   0.000
0.04125   0.00875   339.056   1137.797   268.000   268.000   10.720   10.720   0.000   0.000
0.04375   0.00875   341.571   1137.797   268.000   268.000   10.720   10.720   0.000   0.000
0.04625   0.00875   343.782   1137.797   268.000   268.000   10.720   10.720   0.000   0.000
0.04875   0.00875   345.677   1137.797   268.000   268.000   10.720   0.000   0.000   16.137
0.00125   0.00825   300.430   1137.797   268.000   268.000   0.000   10.720   0.000   0.000
0.00375   0.00825   300.702   1137.797   268.000   268.000   10.720   10.720   0.000   0.000
0.00625   0.00825   301.250   1137.797   268.000   268.000   10.720   10.720   0.000   0.000
0.00875   0.00825   302.083   1137.797   268.000   268.000   10.720   10.720   0.000   0.000
0.01125   0.00825   303.213   1137.797   268.000   268.000   10.720   10.720   0.000   0.000
0.01375   0.00825   304.655   1137.797   268.000   268.000   10.720   10.720   0.000   0.000
0.01625   0.00825   306.428   1137.797   268.000   268.000   10.720   10.720   0.000   0.000
0.01875   0.00825   308.555   1137.797   268.000   268.000   10.720   10.720   0.000   0.000
0.02125   0.00825   311.062   1137.797   268.000   268.000   10.720   10.720   0.000   0.000
0.02375   0.00825   313.975   1137.797   268.000   268.000   10.720   10.720   0.000   0.000
0.02625   0.00825   317.326   1137.797   268.000   268.000   10.720   10.720   0.000   0.000
0.02875   0.00825   321.148   1137.797   268.000   268.000   10.720   10.720   0.000   0.000
0.03125   0.00825   325.430   1137.797   268.000   268.000   10.720   10.720   0.000   0.000
0.03375   0.00825   329.337   1137.797   268.000   268.000   10.720   10.720   0.000   0.000
0.03625   0.00825   332.857   1137.797   268.000   268.000   10.720   10.720   0.000   0.000
0.03875   0.00825   336.020   1137.797   268.000   268.000   10.720   10.720   0.000   0.000
0.04125   0.00825   338.849   1137.797   268.000   268.000   10.720   10.720   0.000   0.000
0.04375   0.00825   341.364   1137.797   268.000   268.000   10.720   10.720   0.000   0.000
0.04625   0.00825   343.577   1137.797   268.000   268.000   10.720   10.720   0.000   0.000
0.04875   0.00825   345.481   1137.797   268.000   268.000   10.720   0.000   0.000   16.138
0.00125   0.00775   300.423   1137.797   268.000   268.000   0.000   10.720   0.000   0.000
0.00375   0.00775   300.695   1137.797   268.000   268.000   10.720   10.720   0.000   0.000
0.00625   0.00775   301.243   1137.797   268.000   268.000   10.720   10.720   0.000   0.000
0.00875   0.00775   302.076   1137.797   268.000   268.000   10.720   10.720   0.000   0.000
0.01125   0.00775   303.205   1137.797   268.000   268.000   10.720   10.720   0.000   0.000
0.01375   0.00775   304.646   1137.797   268.000   268.000   10.720   10.720   0.000   0.000
0.01625   0.00775   306.418   1137.797   268.000   268.000   10.720   10.720   0.000   0.000
0.01875   0.00775   308.544   1137.797   268.000   268.000   10.720   10.720   0.000   0.000
0.02125   0.00775   311.049   1137.797   268.000   268.000   10.720   10.720   0.000   0.000
0.02375   0.00775   313.960   1137.797   268.000   268.000   10.720   10.720   0.000   0.000
0.02625   0.00775   317.305   1137.797   268.000   268.000   10.720   10.720   0.000   0.000
0.02875   0.00775   321.103   1137.797   268.000   268.000   10.720   10.720   0.000   0.000
0.03125   0.00775   325.286   1137.797   268.000   268.000   10.720   10.720   0.000   0.000
0.03375   0.00775   329.170   1137.797   268.000   268.000   10.720   10.720   0.000   0.000
0.03625   0.00775   332.684   1137.797   268.000   268.000   10.720   10.720   0.000   0.000
0.03875   0.00775   335.844   1137.797   268.000   268.000   10.720   10.720   0.000   0.000
0.04125   0.00775   338.673   1137.797   268.000   268.000   10.720   10.720   0.000   0.000
0.04375   0.00775   341.188   1137.797   268.000   268.000   10.720   10.720   0.000   0.000
0.04625   0.00775   343.404   1137.797   268.000   268.000   10.720   10.720   0.000   0.000
0.04875   0.00775   345.320   1137.797   268.000   268.000   10.720   0.000   0.000   16.138
0.00125   0.00725   300.415   1137.797   268.000   268.000   0.000   10.720   0.000   0.000
0.00375   0.00725   300.687   1137.797   268.000   268.000   10.720   10.720   0.000   0.000
0.00625   0.00725   301.235   1137.797   268.000   268.000   10.720   10.720   0.000   0.000
0.00875   0.00725   302.066   1137.797   268.000   268.000   10.720   10.720   0.000   0.000
0.01125   0.00725   303.194   1137.797   268.000   268.000   10.720   10.720   0.000   0.000
0.01375   0.00725   304.634   1137.797   268.000   268.000   10.720   10.720   0.000   0.000
0.01625   0.00725   306.405   1137.797   268.000   268.000   10.720   10.720   0.000   0.000
0.01875   0.00725   308.530   1137.797   268.000   268.000   10.720   10.720   0.000   0.000
0.02125   0.00725   311.033   1137.797   268.000   268.000   10.720   10.720   0.000   0.000
0.02375   0.00725   313.941   1137.797   268.000   268.000   10.720   10.720   0.000   0.000
0.02625   0.00725   317.281   1137.797   268.000   268.000   10.720   10.720   0.000   0.000
0.02875   0.00725   321.058   1137.797   268.000   268.000   10.720   10.720   0.000   0.000
0.03125   0.00725   325.170   1137.797   268.000   268.000   10.720   10.720   0.000   0.000
0.03375   0.00725   329.033   1137.797   268.000   268.000   10.720   10.720   0.000   0.000
0.03625   0.00725   332.542   1137.797   268.000   268.000   10.720   10.720   0.000   0.000
0.03875   0.00725   335.701   1137.797   268.000   268.000   10.720   10.720   0.000   0.000
0.04125   0.00725   338.527   1137.797   268.000   268.000   10.720   10.720   0.000   0.000
0.04375   0.00725   341.042   1137.797   268.000   268.000   10.720   10.720   0.000   0.000
0.04625   0.00725   343.262   1137.797   268.000   268.000   10.720   10.720   0.000   0.000
0.04875   0.00725   345.195   1137.797   268.000   268.000   10.720   0.000   0.000   16.139
0.00125   0.00675   300.405   1137.797   268.000   268.000   0.000   10.720   0.000   0.000
0.00375   0.00675   300.677   1137.797   268.000   268.000   10.720   10.720   0.000   0.000
0.00625   0.00675   301.224   1137.797   268.000   268.000   10.720   10.720   0.000   0.000
0.00875   0.00675   302.055   1137.797   268.000   268.000   10.720   10.720   0.000   0.000
0.01125   0.00675   303.182   1137.797   268.000   268.000   10.720   10.720   0.000   0.000
0.01375   0.00675   304.621   1137.797   268.000   268.000   10.720   10.720   0.000   0.000
0.01625   0.00675   306.390   1137.797   268.000   268.000   10.720   10.720   0.000   0.000
0.01875   0.00675   308.513   1137.797   268.000   268.000   10.720   10.720   0.000   0.000
0.02125   0.00675   311.014   1137.797   268.000   268.000   10.720   10.720   0.000   0.000
0.02375   0.00675   313.919   1137.797   268.000   268.000   10.720   10.720   0.000   0.000
0.02625   0.00675   317.253   1137.797   268.000   268.000   10.720   10.720   0.000   0.000
0.02875   0.00675   321.015   1137.797   268.000   268.000   10.720   10.720   0.000   0.000
0.03125   0.00675   325.081   1137.797   268.000   268.000   10.720   10.720   0.000   0.000
0.03375   0.00675   328.928   1137.797   268.000   268.000   10.720   10.720   0.000   0.000
0.03625   0.00675   332.432   1137.797   268.000   268.000   10.720   10.720   0.000   0.000
0.03875   0.00675   335.588   1137.797   268.000   268.000   10.720   10.720   0.000   0.000
0.04125   0.00675   338.413   1137.797   268.000   268.000   10.720   10.720   0.000   0.000
0.04375   0.00675   340.928   1137.797   268.000   268.000   10.720   10.720   0.000   0.000
0.04625   0.00675   343.151   1137.797   268.000   268.000   10.720   10.720   0.000   0.000
0.04875   0.00675   345.106   1137.797   268.000   268.000   10.720   0.000   0.000   16.139
0.00125   0.00625   300.394   1137.797   268.000   2.085   0.000   10.720   0.000   0.000
0.00375   0.00625   300.665   1137.797   268.000   2.085   10.720   10.720   0.000   0.000
0.00625   0.00625   301.211   1137.797   268.000   2.085   10.720   10.720   0.000   0.000
0.00875   0.00625   302.042   1137.797   268.000   2.085   10.720   10.720   0.000   0.000
0.01125   0.00625   303.167   1137.797   268.000   2.085   10.720   10.720   0.000   0.000
0.01375   0.00625   304.605   1137.797   268.000   2.085   10.720   10.720   0.000   0.000
0.01625   0.00625   306.372   1137.797   268.000   2.085   10.720   10.720   0.000   0.000
0.01875   0.00625   308.493   1137.797   268.000   2.085   10.720   10.720   0.000   0.000
0.02125   0.00625   310.991   1137.797   268.000   2.085   10.720   10.720   0.000   0.000
0.02375   0.00625   313.894   1137.797   268.000   2.085   10.720   10.720   0.000   0.000
0.02625   0.00625   317.223   1137.797   268.000   2.085   10.720   10.720   0.000   0.000
0.02875   0.00625   320.975   1137.797   268.000   2.085   10.720   10.720   0.000   0.000
0.03125   0.00625   325.017   1137.797   268.000   2.085   10.720   10.720   0.000   0.000
0.03375   0.00625   328.854   1137.797   268.000   2.085   10.720   10.720   0.000   0.000
0.03625   0.00625   332.354   1137.797   268.000   2.085   10.720   10.720   0.000   0.000
0.03875   0.00625   335.507   1137.797   268.000   2.085   10.720   10.720   0.000   0.000
0.04125   0.00625   338.331   1137.797   268.000   2.085   10.720   10.720   0.000   0.000
0.04375   0.00625   340.844   1137.797   268.000   2.085   10.720   10.720   0.000   0.000
0.04625   0.00625   343.070   1137.797   268.000   2.085   10.720   10.720   0.000   0.000
0.04875   0.00625   345.055   1137.797   268.000   2.085   10.720   0.000   0.000   16.139
0.00125   0.00575   298.703   686.719   2.085   1.046   0.000   0.042   0.000   0.000
0.00375   0.00575   298.930   686.719   2.085   1.046   0.042   0.042   0.000   0.000
0.00625   0.00575   299.389   686.719   2.085   1.046   0.042   0.042   0.000   0.000
0.00875   0.00575   300.088   686.719   2.085   1.046   0.042   0.042   0.000   0.000
0.01125   0.00575   301.038   686.719   2.085   1.046   0.042   0.042   0.000   0.000
0.01375   0.00575   302.255   686.719   2.085   1.046   0.042   0.042   0.000   0.000
0.01625   0.00575   303.757   686.719   2.085   1.046   0.042   0.042   0.000   0.000
0.01875   0.00575   305.566   686.719   2.085   1.046   0.042   0.042   0.000   0.000
0.02125   0.00575   307.707   686.719   2.085   1.046   0.042   0.042   0.000   0.000
0.02375   0.00575   310.206   686.719   2.085   1.046   0.042   0.042   0.000   0.000
0.02625   0.00575   313.085   686.719   2.085   1.046   0.042   0.042   0.000   0.000
0.02875   0.00575   316.341   686.719   2.085   1.046   0.042   0.042   0.000   0.000
0.03125   0.00575   319.855   686.719   2.085   1.046   0.042   0.042   0.000   0.000
0.03375   0.00575   323.217   686.719   2.085   1.046   0.042   0.042   0.000   0.000
0.03625   0.00575   326.306   686.719   2.085   1.046   0.042   0.042   0.000   0.000
0.03875   0.00575   329.117   686.719   2.085   1.046   0.042   0.042   0.000   0.000
0.04125   0.00575   331.668   686.719   2.085   1.046   0.042   0.042   0.000   0.000
0.04375   0.00575   333.991   686.719   2.085   1.046   0.042   0.042   0.000   0.000
0.04625   0.00575   336.350   686.719   2.085   1.046   0.042   0.042   0.000   0.000
0.04875   0.00575   343.418   686.719   2.085   1.046   0.042   0.000   0.000   6.054
0.00125   0.00525   296.532   686.719   1.046   1.046   0.000   0.042   0.000   0.000
0.00375   0.00525   296.692   686.719   1.046   1.046   0.042   0.042   0.000   0.000
0.00625   0.00525   297.014   686.719   1.046   1.046   0.042   0.042   0.000   0.000
0.00875   0.00525   297.506   686.719   1.046   1.046   0.042   0.042   0.000   0.000
0.01125   0.00525   298.178   686.719   1.046   1.046   0.042   0.042   0.000   0.000
0.01375   0.00525   299.042   686.719   1.046   1.046   0.042   0.042   0.000   0.000
0.01625   0.00525   300.116   686.719   1.046   1.046   0.042   0.042   0.000   0.000
0.01875   0.00525   301.418   686.719   1.046   1.046   0.042   0.042   0.000   0.000
0.02125   0.00525   302.969   686.719   1.046   1.046   0.042   0.042   0.000   0.000
0.02375   0.00525   304.790   686.719   1.046   1.046   0.042   0.042   0.000   0.000
0.02625   0.00525   306.903   686.719   1.046   1.046   0.042   0.042   0.000   0.000
0.02875   0.00525   309.305   686.719   1.046   1.046   0.042   0.042   0.000   0.000
0.03125   0.00525   311.913   686.719   1.046   1.046   0.042   0.042   0.000   0.000
0.03375   0.00525   314.451   686.719   1.046   1.046   0.042   0.042   0.000   0.000
0.03625   0.00525   316.836   686.719   1.046   1.046   0.042   0.042   0.000   0.000
0.03875   0.00525   319.062   686.719   1.046   1.046   0.042   0.042   0.000   0.000
0.04125   0.00525   321.149   686.719   1.046   1.046   0.042   0.042   0.000   0.000
0.04375   0.00525   323.147   686.719   1.046   1.046   0.042   0.042   0.000   0.000
0.04625   0.00525   325.631   686.719   1.046   1.046   0.042   0.042   0.000   0.000
0.04875   0.00525   337.531   686.719   1.046   1.046   0.042   0.000   0.000   6.062
0.00125   0.00475   295.221   686.719   1.046   1.046   0.000   0.042   0.000   0.000
0.00375   0.00475   295.329   686.719   1.046   1.046   0.042   0.042   0.000   0.000
0.00625   0.00475   295.550   686.719   1.046   1.046   0.042   0.042   0.000   0.000
0.00875   0.00475   295.886   686.719   1.046   1.046   0.042   0.042   0.000   0.000
0.01125   0.00475   296.347   686.719   1.046   1.046   0.042   0.042   0.000   0.000
0.01375   0.00475   296.941   686.719   1.046   1.046   0.042   0.042   0.000   0.000
0.01625   0.00475   297.681   686.719   1.046   1.046   0.042   0.042   0.000   0.000
0.01875   0.00475   298.580   686.719   1.046   1.046   0.042   0.042   0.000   0.000
0.02125   0.00475   299.655   686.719   1.046   1.046   0.042   0.042   0.000   0.000
0.02375   0.00475   300.922   686.719   1.046   1.046   0.042   0.042   0.000   0.000
0.02625   0.00475   302.394   686.719   1.046   1.046   0.042   0.042   0.000   0.000
0.02875   0.00475   304.074   686.719   1.046   1.046   0.042   0.042   0.000   0.000
0.03125   0.00475   305.912   686.719   1.046   1.046   0.042   0.042   0.000   0.000
0.03375   0.00475   307.750   686.719   1.046   1.046   0.042   0.042   0.000   0.000
0.03625   0.00475   309.540   686.719   1.046   1.046   0.042   0.042   0.000   0.000
0.03875   0.00475   311.279   686.719   1.046   1.046   0.042   0.042   0.000   0.000
0.04125   0.00475   312.984   686.719   1.046   1.046   0.042   0.042   0.000   0.000
0.04375   0.00475   314.700   686.719   1.046   1.046   0.042   0.042   0.000   0.000
0.04625   0.00475   316.998   686.719   1.046   1.046   0.042   0.042   0.000   0.000
0.04875   0.00475   328.815   686.719   1.046   1.046   0.042   0.000   0.000   6.073
0.00125   0.00425   294.518   686.719   1.046   2.085   0.000   0.042   0.000   0.000
0.00375   0.00425   294.590   686.719   1.046   2.085   0.042   0.042   0.000   0.000
0.00625   0.00425   294.736   686.719   1.046   2.085   0.042   0.042   0.000   0.000
0.00875   0.00425   294.959   686.719   1.046   2.085   0.042   0.042   0.000   0.000
0.01125   0.00425   295.263   686.719   1.046   2.085   0.042   0.042   0.000   0.000
0.01375   0.00425   295.653   686.719   1.046   2.085   0.042   0.042   0.000   0.000
0.01625   0.00425   296.137   686.719   1.046   2.085   0.042   0.042   0.000   0.000
0.01875   0.00425   296.722   686.719   1.046   2.085   0.042   0.042   0.000   0.000
0.02125   0.00425   297.417   686.719   1.046   2.085   0.042   0.042   0.000   0.000
0.02375   0.00425   298.229   686.719   1.046   2.085   0.042   0.042   0.000   0.000
0.02625   0.00425   299.167   686.719   1.046   2.085   0.042   0.042   0.000   0.000
0.02875   0.00425   300.234   686.719   1.046   2.085   0.042   0.042   0.000   0.000
0.03125   0.00425   301.413   686.719   1.046   2.085   0.042   0.042   0.000   0.000
0.03375   0.00425   302.654   686.719   1.046   2.085   0.042   0.042   0.000   0.000
0.03625   0.00425   303.943   686.719   1.046   2.085   0.042   0.042   0.000   0.000
0.03875   0.00425   305.279   686.719   1.046   2.085   0.042   0.042   0.000   0.000
0.04125   0.00425   306.670   686.719   1.046   2.085   0.042   0.042   0.000   0.000
0.04375   0.00425   308.138   686.719   1.046   2.085   0.042   0.042   0.000   0.000
0.04625   0.00425   309.936   686.719   1.046   2.085   0.042   0.042   0.000   0.000
0.04875   0.00425   316.740   686.719   1.046   2.085   0.042   0.000   0.000   6.087
0.00125   0.00375   294.384   1137.797   2.085   268.000   0.000   10.720   0.000   0.000
0.00375   0.00375   294.443   1137.797   2.085   268.000   10.720   10.720   0.000   0.000
0.00625   0.00375   294.562   1137.797   2.085   268.000   10.720   10.720   0.000   0.000
0.00875   0.00375   294.742   1137.797   2.085   268.000   10.720   10.720   0.000   0.000
0.01125   0.00375   294.986   1137.797   2.085   268.000   10.720   10.720   0.000   0.000
0.01375   0.00375   295.298   1137.797   2.085   268.000   10.720   10.720   0.000   0.000
0.01625   0.00375   295.681   1137.797   2.085   268.000   10.720   10.720   0.000   0.000
0.01875   0.00375   296.138   1137.797   2.085   268.000   10.720   10.720   0.000   0.000
0.02125   0.00375   296.675   1137.797   2.085   268.000   10.720   10.720   0.000   0.000
0.02375   0.00375   297.294   1137.797   2.085   268.000   10.720   10.720   0.000   0.000
0.02625   0.00375   298.000   1137.797   2.085   268.000   10.720   10.720   0.000   0.000
0.02875   0.00375   298.795   1137.797   2.085   268.000   10.720   10.720   0.000   0.000
0.03125   0.00375   299.681   1137.797   2.085   268.000   10.720   10.720   0.000   0.000
0.03375   0.00375   300.658   1137.797   2.085   268.000   10.720   10.720   0.000   0.000
0.03625   0.00375   301.726   1137.797   2.085   268.000   10.720   10.720   0.000   0.000
0.03875   0.00375   302.888   1137.797   2.085   268.000   10.720   10.720   0.000   0.000
0.04125   0.00375   304.146   1137.797   2.085   268.000   10.720   10.720   0.000   0.000
0.04375   0.00375   305.502   1137.797   2.085   268.000   10.720   10.720   0.000   0.000
0.04625   0.00375   306.968   1137.797   2.085   268.000   10.720   10.720   0.000   0.000
0.04875   0.00375   308.581   1137.797   2.085   268.000   10.720   0.000   0.000   16.255
0.00125   0.00325   294.383   1137.797   268.000   268.000   0.000   10.720   0.000   0.000
0.00375   0.00325   294.442   1137.797   268.000   268.000   10.720   10.720   0.000   0.000
0.00625   0.00325   294.561   1137.797   268.000   268.000   10.720   10.720   0.000   0.000
0.00875   0.00325   294.741   1137.797   268.000   268.000   10.720   10.720   0.000   0.000
0.01125   0.00325   294.985   1137.797   268.000   268.000   10.720   10.720   0.000   0.000
0.01375   0.00325   295.296   1137.797   268.000   268.000   10.720   10.720   0.000   0.000
0.01625   0.00325   295.677   1137.797   268.000   268.000   10.720   10.720   0.000   0.000
0.01875   0.00325   296.134   1137.797   268.000   268.000   10.720   10.720   0.000   0.000
0.02125   0.00325   296.670   1137.797   268.000   268.000   10.720   10.720   0.000   0.000
0.02375   0.00325   297.288   1137.797   268.000   268.000   10.720   10.720   0.000   0.000
0.02625   0.00325   297.992   1137.797   268.000   268.000   10.720   10.720   0.000   0.000
0.02875   0.00325   298.786   1137.797   268.000   268.000   10.720   10.720   0.000   0.000
0.03125   0.00325   299.669   1137.797   268.000   268.000   10.720   10.720   0.000   0.000
0.03375   0.00325   300.644   1137.797   268.000   268.000   10.720   10.720   0.000   0.000
0.03625   0.00325   301.711   1137.797   268.000   268.000   10.720   10.720   0.000   0.000
0.03875   0.00325   302.872   1137.797   268.000   268.000   10.720   10.720   0.000   0.000
0.04125   0.00325   304.128   1137.797   268.000   268.000   10.720   10.720   0.000   0.000
0.04375   0.00325   305.484   1137.797   268.000   268.000   10.720   10.720   0.000   0.000
0.04625   0.00325   306.946   1137.797   268.000   268.000   10.720   10.720   0.000   0.000
0.04875   0.00325   308.529   1137.797   268.000   268.000   10.720   0.000   0.000   16.255
0.00125   0.00275   294.382   1137.797   268.000   268.000   0.000   10.720   0.000   0.000
0.00375   0.00275   294.441   1137.797   268.000   268.000   10.720   10.720   0.000   0.000
0.00625   0.00275   294.560   1137.797   268.000   268.000   10.720   10.720   0.000   0.000
0.00875   0.00275   294.739   1137.797   268.000   268.000   10.720   10.720   0.000   0.000
0.01125   0.00275   294.983   1137.797   268.000   268.000   10.720   10.720   0.000   0.000
0.01375   0.00275   295.294   1137.797   268.000   268.000   10.720   10.720   0.000   0.000
0.01625   0.00275   295.675   1137.797   268.000   268.000   10.720   10.720   0.000   0.000
0.01875   0.00275   296.131   1137.797   268.000   268.000   10.720   10.720   0.000   0.000
0.02125   0.00275   296.665   1137.797   268.000   268.000   10.720   10.720   0.000   0.000
0.02375   0.00275   297.282   1137.797   268.000   268.000   10.720   10.720   0.000   0.000
0.02625   0.00275   297.985   1137.797   268.000   268.000   10.720   10.720   0.000   0.000
0.02875   0.00275   298.777   1137.797   268.000   268.000   10.720   10.720   0.000   0.000
0.03125   0.00275   299.659   1137.797   268.000   268.000   10.720   10.720   0.000   0.000
0.03375   0.00275   300.633   1137.797   268.000   268.000   10.720   10.720   0.000   0.000
0.03625   0.00275   301.698   1137.797   268.000   268.000   10.720   10.720   0.000   0.000
0.03875   0.00275   302.858   1137.797   268.000   268.000   10.720   10.720   0.000   0.000
0.04125   0.00275   304.114   1137.797   268.000   268.000   10.720   10.720   0.000   0.000
0.04375   0.00275   305.468   1137.797   268.000   268.000   10.720   10.720   0.000   0.000
0.04625   0.00275   306.926   1137.797   268.000   268.000   10.720   10.720   0.000   0.000
0.04875   0.00275   308.485   1137.797   268.000   268.000   10.720   0.000   0.000   16.255
0.00125   0.00225   294.382   1137.797   268.000   268.000   0.000   10.720   0.000   0.000
0.00375   0.00225   294.440   1137.797   268.000   268.000   10.720   10.720   0.000   0.000
0.00625   0.00225   294.559   1137.797   268.000   268.000   10.720   10.720   0.000   0.000
0.00875   0.00225   294.738   1137.797   268.000   268.000   10.720   10.720   0.000   0.000
0.01125   0.00225   294.982   1137.797   268.000   268.000   10.720   10.720   0.000   0.000
0.01375   0.00225   295.292   1137.797   268.000   268.000   10.720   10.720   0.000   0.000
0.01625   0.00225   295.673   1137.797   268.000   268.000   10.720   10.720   0.000   0.000
0.01875   0.00225   296.128   1137.797   268.000   268.000   10.720   10.720   0.000   0.000
0.02125   0.00225   296.662   1137.797   268.000   268.000   10.720   10.720   0.000   0.000
0.02375   0.00225   297.278   1137.797   268.000   268.000   10.720   10.720   0.000   0.000
0.02625   0.00225   297.980   1137.797   268.000   268.000   10.720   10.720   0.000   0.000
0.02875   0.00225   298.770   1137.797   268.000   268.000   10.720   10.720   0.000   0.000
0.03125   0.00225   299.651   1137.797   268.000   268.000   10.720   10.720   0.000   0.000
0.03375   0.00225   300.623   1137.797   268.000   268.000   10.720   10.720   0.000   0.000
0.03625   0.00225   301.688   1137.797   268.000   268.000   10.720   10.720   0.000   0.000
0.03875   0.00225   302.846   1137.797   268.000   268.000   10.720   10.720   0.000   0.000
0.04125   0.00225   304.101   1137.797   268.000   268.000   10.720   10.720   0.000   0.000
0.04375   0.00225   305.455   1137.797   268.000   268.000   10.720   10.720   0.000   0.000
0.04625   0.00225   306.908   1137.797   268.000   268.000   10.720   10.720   0.000   0.000
0.04875   0.00225   308.450   1137.797   268.000   268.000   10.720   0.000   0.000   16.255
0.00125   0.00175   294.381   1137.797   268.000   268.000   0.000   10.720   0.000   0.000
0.00375   0.00175   294.440   1137.797   268.000   268.000   10.720   10.720   0.000   0.000
0.00625   0.00175   294.558   1137.797   268.000   268.000   10.720   10.720   0.000   0.000
0.00875   0.00175   294.737   1137.797   268.000   268.000   10.720   10.720   0.000   0.000
0.01125   0.00175   294.981   1137.797   268.000   268.000   10.720   10.720   0.000   0.000
0.01375   0.00175   295.290   1137.797   268.000   268.000   10.720   10.720   0.000   0.000
0.01625   0.00175   295.671   1137.797   268.000   268.000   10.720   10.720   0.000   0.000
0.01875   0.00175   296.126   1137.797   268.000   268.000   10.720   10.720   0.000   0.000
0.02125   0.00175   296.659   1137.797   268.000   268.000   10.720   10.720   0.000   0.000