VARIABLES = X, Y, T, ap,an,as,aw,ae,sp,su
ZONE I=20,J=20, F=POINT,t="20.964"
0.00125   0.00975   296.744   1137.797   0.000   268.000   0.000   10.720   0.000   -0.003
0.00375   0.00975   296.951   1137.797   0.000   268.000   10.720   10.720   0.000   -0.003
0.00625   0.00975   297.371   1137.797   0.000   268.000   10.720   10.720   0.000   -0.003
0.00875   0.00975   298.014   1137.797   0.000   268.000   10.720   10.720   0.000   -0.004
0.01125   0.00975   298.897   1137.797   0.000   268.000   10.720   10.720   0.000   -0.004
0.01375   0.00975   300.040   1137.797   0.000   268.000   10.720   10.720   0.000   -0.005
0.01625   0.00975   301.469   1137.797   0.000   268.000   10.720   10.720   0.000   -0.006
0.01875   0.00975   303.214   1137.797   0.000   268.000   10.720   10.720   0.000   -0.008
0.02125   0.00975   305.310   1137.797   0.000   268.000   10.720   10.720   0.000   -0.009
0.02375   0.00975   307.794   1137.797   0.000   268.000   10.720   10.720   0.000   -0.011
0.02625   0.00975   310.715   1137.797   0.000   268.000   10.720   10.720   0.000   -0.013
0.02875   0.00975   314.161   1137.797   0.000   268.000   10.720   10.720   0.000   -0.016
0.03125   0.00975   318.555   1137.797   0.000   268.000   10.720   10.720   0.000   81.117
0.03375   0.00975   322.122   1137.797   0.000   268.000   10.720   10.720   0.000   81.061
0.03625   0.00975   325.283   1137.797   0.000   268.000   10.720   10.720   0.000   81.010
0.03875   0.00975   328.122   1137.797   0.000   268.000   10.720   10.720   0.000   80.963
0.04125   0.00975   330.680   1137.797   0.000   268.000   10.720   10.720   0.000   80.920
0.04375   0.00975   332.984   1137.797   0.000   268.000   10.720   10.720   0.000   80.880
0.04625   0.00975   335.048   1137.797   0.000   268.000   10.720   10.720   0.000   80.843
0.04875   0.00975   336.864   1137.797   0.000   268.000   10.720   0.000   0.000   96.979
0.00125   0.00925   296.743   1137.797   268.000   268.000   0.000   10.720   0.000   0.000
0.00375   0.00925   296.950   1137.797   268.000   268.000   10.720   10.720   0.000   0.000
0.00625   0.00925   297.370   1137.797   268.000   268.000   10.720   10.720   0.000   0.000
0.00875   0.00925   298.013   1137.797   268.000   268.000   10.720   10.720   0.000   0.000
0.01125   0.00925   298.896   1137.797   268.000   268.000   10.720   10.720   0.000   0.000
0.01375   0.00925   300.038   1137.797   268.000   268.000   10.720   10.720   0.000   0.000
0.01625   0.00925   301.467   1137.797   268.000   268.000   10.720   10.720   0.000   0.000
0.01875   0.00925   303.212   1137.797   268.000   268.000   10.720   10.720   0.000   0.000
0.02125   0.00925   305.307   1137.797   268.000   268.000   10.720   10.720   0.000   0.000
0.02375   0.00925   307.791   1137.797   268.000   268.000   10.720   10.720   0.000   0.000
0.02625   0.00925   310.710   1137.797   268.000   268.000   10.720   10.720   0.000   0.000
0.02875   0.00925   314.140   1137.797   268.000   268.000   10.720   10.720   0.000   0.000
0.03125   0.00925   318.303   1137.797   268.000   268.000   10.720   10.720   0.000   0.000
0.03375   0.00925   321.854   1137.797   268.000   268.000   10.720   10.720   0.000   0.000
0.03625   0.00925   325.013   1137.797   268.000   268.000   10.720   10.720   0.000   0.000
0.03875   0.00925   327.852   1137.797   268.000   268.000   10.720   10.720   0.000   0.000
0.04125   0.00925   330.410   1137.797   268.000   268.000   10.720   10.720   0.000   0.000
0.04375   0.00925   332.713   1137.797   268.000   268.000   10.720   10.720   0.000   0.000
0.04625   0.00925   334.779   1137.797   268.000   268.000   10.720   10.720   0.000   0.000
0.04875   0.00925   336.597   1137.797   268.000   268.000   10.720   0.000   0.000   16.170
0.00125   0.00875   296.741   1137.797   268.000   268.000   0.000   10.720   0.000   0.000
0.00375   0.00875   296.948   1137.797   268.000   268.000   10.720   10.720   0.000   0.000
0.00625   0.00875   297.368   1137.797   268.000   268.000   10.720   10.720   0.000   0.000
0.00875   0.00875   298.011   1137.797   268.000   268.000   10.720   10.720   0.000   0.000
0.01125   0.00875   298.893   1137.797   268.000   268.000   10.720   10.720   0.000   0.000
0.01375   0.00875   300.035   1137.797   268.000   268.000   10.720   10.720   0.000   0.000
0.01625   0.00875   301.463   1137.797   268.000   268.000   10.720   10.720   0.000   0.000
0.01875   0.00875   303.208   1137.797   268.000   268.000   10.720   10.720   0.000   0.000
0.02125   0.00875   305.302   1137.797   268.000   268.000   10.720   10.720   0.000   0.000
0.02375   0.00875   307.784   1137.797   268.000   268.000   10.720   10.720   0.000   0.000
0.02625   0.00875   310.699   1137.797   268.000   268.000   10.720   10.720   0.000   0.000
0.02875   0.00875   314.106   1137.797   268.000   268.000   10.720   10.720   0.000   0.000
0.03125   0.00875   318.093   1137.797   268.000   268.000   10.720   10.720   0.000   0.000
0.03375   0.00875   321.621   1137.797   268.000   268.000   10.720   10.720   0.000   0.000
0.03625   0.00875   324.776   1137.797   268.000   268.000   10.720   10.720   0.000   0.000
0.03875   0.00875   327.614   1137.797   268.000   268.000   10.720   10.720   0.000   0.000
0.04125   0.00875   330.172   1137.797   268.000   268.000   10.720   10.720   0.000   0.000
0.04375   0.00875   332.475   1137.797   268.000   268.000   10.720   10.720   0.000   0.000
0.04625   0.00875   334.542   1137.797   268.000   268.000   10.720   10.720   0.000   0.000
0.04875   0.00875   336.366   1137.797   268.000   268.000   10.720   0.000   0.000   16.170
0.00125   0.00825   296.738   1137.797   268.000   268.000   0.000   10.720   0.000   0.000
0.00375   0.00825   296.945   1137.797   268.000   268.000   10.720   10.720   0.000   0.000
0.00625   0.00825   297.364   1137.797   268.000   268.000   10.720   10.720   0.000   0.000
0.00875   0.00825   298.007   1137.797   268.000   268.000   10.720   10.720   0.000   0.000
0.01125   0.00825   298.888   1137.797   268.000   268.000   10.720   10.720   0.000   0.000
0.01375   0.00825   300.030   1137.797   268.000   268.000   10.720   10.720   0.000   0.000
0.01625   0.00825   301.458   1137.797   268.000   268.000   10.720   10.720   0.000   0.000
0.01875   0.00825   303.201   1137.797   268.000   268.000   10.720   10.720   0.000   0.000
0.02125   0.00825   305.294   1137.797   268.000   268.000   10.720   10.720   0.000   0.000
0.02375   0.00825   307.775   1137.797   268.000   268.000   10.720   10.720   0.000   0.000
0.02625   0.00825   310.683   1137.797   268.000   268.000   10.720   10.720   0.000   0.000
0.02875   0.00825   314.065   1137.797   268.000   268.000   10.720   10.720   0.000   0.000
0.03125   0.00825   317.919   1137.797   268.000   268.000   10.720   10.720   0.000   0.000
0.03375   0.00825   321.422   1137.797   268.000   268.000   10.720   10.720   0.000   0.000
0.03625   0.00825   324.572   1137.797   268.000   268.000   10.720   10.720   0.000   0.000
0.03875   0.00825   327.408   1137.797   268.000   268.000   10.720   10.720   0.000   0.000
0.04125   0.00825   329.965   1137.797   268.000   268.000   10.720   10.720   0.000   0.000
0.04375   0.00825   332.268   1137.797   268.000   268.000   10.720   10.720   0.000   0.000
0.04625   0.00825   334.338   1137.797   268.000   268.000   10.720   10.720   0.000   0.000
0.04875   0.00825   336.170   1137.797   268.000   268.000   10.720   0.000   0.000   16.171
0.00125   0.00775   296.734   1137.797   268.000   268.000   0.000   10.720   0.000   0.000
0.00375   0.00775   296.941   1137.797   268.000   268.000   10.720   10.720   0.000   0.000
0.00625   0.00775   297.360   1137.797   268.000   268.000   10.720   10.720   0.000   0.000
0.00875   0.00775   298.002   1137.797   268.000   268.000   10.720   10.720   0.000   0.000
0.01125   0.00775   298.883   1137.797   268.000   268.000   10.720   10.720   0.000   0.000
0.01375   0.00775   300.023   1137.797   268.000   268.000   10.720   10.720   0.000   0.000
0.01625   0.00775   301.450   1137.797   268.000   268.000   10.720   10.720   0.000   0.000
0.01875   0.00775   303.192   1137.797   268.000   268.000   10.720   10.720   0.000   0.000
0.02125   0.00775   305.284   1137.797   268.000   268.000   10.720   10.720   0.000   0.000
0.02375   0.00775   307.762   1137.797   268.000   268.000   10.720   10.720   0.000   0.000
0.02625   0.00775   310.665   1137.797   268.000   268.000   10.720   10.720   0.000   0.000
0.02875   0.00775   314.022   1137.797   268.000   268.000   10.720   10.720   0.000   0.000
0.03125   0.00775   317.777   1137.797   268.000   268.000   10.720   10.720   0.000   0.000
0.03375   0.00775   321.256   1137.797   268.000   268.000   10.720   10.720   0.000   0.000
0.03625   0.00775   324.400   1137.797   268.000   268.000   10.720   10.720   0.000   0.000
0.03875   0.00775   327.235   1137.797   268.000   268.000   10.720   10.720   0.000   0.000
0.04125   0.00775   329.790   1137.797   268.000   268.000   10.720   10.720   0.000   0.000
0.04375   0.00775   332.093   1137.797   268.000   268.000   10.720   10.720   0.000   0.000
0.04625   0.00775   334.166   1137.797   268.000   268.000   10.720   10.720   0.000   0.000
0.04875   0.00775   336.010   1137.797   268.000   268.000   10.720   0.000   0.000   16.172
0.00125   0.00725   296.729   1137.797   268.000   268.000   0.000   10.720   0.000   0.000
0.00375   0.00725   296.935   1137.797   268.000   268.000   10.720   10.720   0.000   0.000
0.00625   0.00725   297.354   1137.797   268.000   268.000   10.720   10.720   0.000   0.000
0.00875   0.00725   297.995   1137.797   268.000   268.000   10.720   10.720   0.000   0.000
0.01125   0.00725   298.875   1137.797   268.000   268.000   10.720   10.720   0.000   0.000
0.01375   0.00725   300.015   1137.797   268.000   268.000   10.720   10.720   0.000   0.000
0.01625   0.00725   301.440   1137.797   268.000   268.000   10.720   10.720   0.000   0.000
0.01875   0.00725   303.181   1137.797   268.000   268.000   10.720   10.720   0.000   0.000
0.02125   0.00725   305.270   1137.797   268.000   268.000   10.720   10.720   0.000   0.000
0.02375   0.00725   307.746   1137.797   268.000   268.000   10.720   10.720   0.000   0.000
0.02625   0.00725   310.643   1137.797   268.000   268.000   10.720   10.720   0.000   0.000
0.02875   0.00725   313.980   1137.797   268.000   268.000   10.720   10.720   0.000   0.000
0.03125   0.00725   317.664   1137.797   268.000   268.000   10.720   10.720   0.000   0.000
0.03375   0.00725   321.123   1137.797   268.000   268.000   10.720   10.720   0.000   0.000
0.03625   0.00725   324.261   1137.797   268.000   268.000   10.720   10.720   0.000   0.000
0.03875   0.00725   327.093   1137.797   268.000   268.000   10.720   10.720   0.000   0.000
0.04125   0.00725   329.647   1137.797   268.000   268.000   10.720   10.720   0.000   0.000
0.04375   0.00725   331.950   1137.797   268.000   268.000   10.720   10.720   0.000   0.000
0.04625   0.00725   334.025   1137.797   268.000   268.000   10.720   10.720   0.000   0.000
0.04875   0.00725   335.886   1137.797   268.000   268.000   10.720   0.000   0.000   16.172
0.00125   0.00675   296.723   1137.797   268.000   268.000   0.000   10.720   0.000   0.000
0.00375   0.00675   296.929   1137.797   268.000   268.000   10.720   10.720   0.000   0.000
0.00625   0.00675   297.347   1137.797   268.000   268.000   10.720   10.720   0.000   0.000
0.00875   0.00675   297.988   1137.797   268.000   268.000   10.720   10.720   0.000   0.000
0.01125   0.00675   298.867   1137.797   268.000   268.000   10.720   10.720   0.000   0.000
0.01375   0.00675   300.005   1137.797   268.000   268.000   10.720   10.720   0.000   0.000
0.01625   0.00675   301.429   1137.797   268.000   268.000   10.720   10.720   0.000   0.000
0.01875   0.00675   303.167   1137.797   268.000   268.000   10.720   10.720   0.000   0.000
0.02125   0.00675   305.255   1137.797   268.000   268.000   10.720   10.720   0.000   0.000
0.02375   0.00675   307.727   1137.797   268.000   268.000   10.720   10.720   0.000   0.000
0.02625   0.00675   310.619   1137.797   268.000   268.000   10.720   10.720   0.000   0.000
0.02875   0.00675   313.940   1137.797   268.000   268.000   10.720   10.720   0.000   0.000
0.03125   0.00675   317.578   1137.797   268.000   268.000   10.720   10.720   0.000   0.000
0.03375   0.00675   321.020   1137.797   268.000   268.000   10.720   10.720   0.000   0.000
0.03625   0.00675   324.153   1137.797   268.000   268.000   10.720   10.720   0.000   0.000
0.03875   0.00675   326.983   1137.797   268.000   268.000   10.720   10.720   0.000   0.000
0.04125   0.00675   329.535   1137.797   268.000   268.000   10.720   10.720   0.000   0.000
0.04375   0.00675   331.837   1137.797   268.000   268.000   10.720   10.720   0.000   0.000
0.04625   0.00675   333.916   1137.797   268.000   268.000   10.720   10.720   0.000   0.000
0.04875   0.00675   335.799   1137.797   268.000   268.000   10.720   0.000   0.000   16.172
0.00125   0.00625   296.716   1137.797   268.000   2.085   0.000   10.720   0.000   0.000
0.00375   0.00625   296.922   1137.797   268.000   2.085   10.720   10.720   0.000   0.000
0.00625   0.00625   297.339   1137.797   268.000   2.085   10.720   10.720   0.000   0.000
0.00875   0.00625   297.979   1137.797   268.000   2.085   10.720   10.720   0.000   0.000
0.01125   0.00625   298.856   1137.797   268.000   2.085   10.720   10.720   0.000   0.000
0.01375   0.00625   299.993   1137.797   268.000   2.085   10.720   10.720   0.000   0.000
0.01625   0.00625   301.415   1137.797   268.000   2.085   10.720   10.720   0.000   0.000
0.01875   0.00625   303.152   1137.797   268.000   2.085   10.720   10.720   0.000   0.000
0.02125   0.00625   305.237   1137.797   268.000   2.085   10.720   10.720   0.000   0.000
0.02375   0.00625   307.706   1137.797   268.000   2.085   10.720   10.720   0.000   0.000
0.02625   0.00625   310.593   1137.797   268.000   2.085   10.720   10.720   0.000   0.000
0.02875   0.00625   313.904   1137.797   268.000   2.085   10.720   10.720   0.000   0.000
0.03125   0.00625   317.517   1137.797   268.000   2.085   10.720   10.720   0.000   0.000
0.03375   0.00625   320.949   1137.797   268.000   2.085   10.720   10.720   0.000   0.000
0.03625   0.00625   324.078   1137.797   268.000   2.085   10.720   10.720   0.000   0.000
0.03875   0.00625   326.904   1137.797   268.000   2.085   10.720   10.720   0.000   0.000
0.04125   0.00625   329.455   1137.797   268.000   2.085   10.720   10.720   0.000   0.000
0.04375   0.00625   331.756   1137.797   268.000   2.085   10.720   10.720   0.000   0.000
0.04625   0.00625   333.837   1137.797   268.000   2.085   10.720   10.720   0.000   0.000
0.04875   0.00625   335.750   1137.797   268.000   2.085   10.720   0.000   0.000   16.173
0.00125   0.00575   295.665   686.719   2.085   1.046   0.000   0.042   0.000   0.000
0.00375   0.00575   295.828   686.719   2.085   1.046   0.042   0.042   0.000   0.000
0.00625   0.00575   296.159   686.719   2.085   1.046   0.042   0.042   0.000   0.000
0.00875   0.00575   296.668   686.719   2.085   1.046   0.042   0.042   0.000   0.000
0.01125   0.00575   297.370   686.719   2.085   1.046   0.042   0.042   0.000   0.000
0.01375   0.00575   298.285   686.719   2.085   1.046   0.042   0.042   0.000   0.000
0.01625   0.00575   299.437   686.719   2.085   1.046   0.042   0.042   0.000   0.000
0.01875   0.00575   300.855   686.719   2.085   1.046   0.042   0.042   0.000   0.000
0.02125   0.00575   302.572   686.719   2.085   1.046   0.042   0.042   0.000   0.000
0.02375   0.00575   304.622   686.719   2.085   1.046   0.042   0.042   0.000   0.000
0.02625   0.00575   307.038   686.719   2.085   1.046   0.042   0.042   0.000   0.000
0.02875   0.00575   309.828   686.719   2.085   1.046   0.042   0.042   0.000   0.000
0.03125   0.00575   312.885   686.719   2.085   1.046   0.042   0.042   0.000   0.000
0.03375   0.00575   315.811   686.719   2.085   1.046   0.042   0.042   0.000   0.000
0.03625   0.00575   318.499   686.719   2.085   1.046   0.042   0.042   0.000   0.000
0.03875   0.00575   320.953   686.719   2.085   1.046   0.042   0.042   0.000   0.000
0.04125   0.00575   323.200   686.719   2.085   1.046   0.042   0.042   0.000   0.000
0.04375   0.00575   325.285   686.719   2.085   1.046   0.042   0.042   0.000   0.000
0.04625   0.00575   327.472   686.719   2.085   1.046   0.042   0.042   0.000   0.000
0.04875   0.00575   334.443   686.719   2.085   1.046   0.042   0.000   0.000   6.066
0.00125   0.00525   294.455   686.719   1.046   1.046   0.000   0.042   0.000   0.000
0.00375   0.00525   294.558   686.719   1.046   1.046   0.042   0.042   0.000   0.000
0.00625   0.00525   294.767   686.719   1.046   1.046   0.042   0.042   0.000   0.000
0.00875   0.00525   295.092   686.719   1.046   1.046   0.042   0.042   0.000   0.000
0.01125   0.00525   295.543   686.719   1.046   1.046   0.042   0.042   0.000   0.000
0.01375   0.00525   296.138   686.719   1.046   1.046   0.042   0.042   0.000   0.000
0.01625   0.00525   296.896   686.719   1.046   1.046   0.042   0.042   0.000   0.000
0.01875   0.00525   297.840   686.719   1.046   1.046   0.042   0.042   0.000   0.000
0.02125   0.00525   298.999   686.719   1.046   1.046   0.042   0.042   0.000   0.000
0.02375   0.00525   300.401   686.719   1.046   1.046   0.042   0.042   0.000   0.000
0.02625   0.00525   302.074   686.719   1.046   1.046   0.042   0.042   0.000   0.000
0.02875   0.00525   304.028   686.719   1.046   1.046   0.042   0.042   0.000   0.000
0.03125   0.00525   306.191   686.719   1.046   1.046   0.042   0.042   0.000   0.000
0.03375   0.00525   308.301   686.719   1.046   1.046   0.042   0.042   0.000   0.000
0.03625   0.00525   310.285   686.719   1.046   1.046   0.042   0.042   0.000   0.000
0.03875   0.00525   312.151   686.719   1.046   1.046   0.042   0.042   0.000   0.000
0.04125   0.00525   313.929   686.719   1.046   1.046   0.042   0.042   0.000   0.000
0.04375   0.00525   315.677   686.719   1.046   1.046   0.042   0.042   0.000   0.000
0.04625   0.00525   317.969   686.719   1.046   1.046   0.042   0.042   0.000   0.000
0.04875   0.00525   329.742   686.719   1.046   1.046   0.042   0.000   0.000   6.072
0.00125   0.00475   293.811   686.719   1.046   1.046   0.000   0.042   0.000   0.000
0.00375   0.00475   293.875   686.719   1.046   1.046   0.042   0.042   0.000   0.000
0.00625   0.00475   294.006   686.719   1.046   1.046   0.042   0.042   0.000   0.000
0.00875   0.00475   294.210   686.719   1.046   1.046   0.042   0.042   0.000   0.000
0.01125   0.00475   294.496   686.719   1.046   1.046   0.042   0.042   0.000   0.000
0.01375   0.00475   294.875   686.719   1.046   1.046   0.042   0.042   0.000   0.000
0.01625   0.00475   295.361   686.719   1.046   1.046   0.042   0.042   0.000   0.000
0.01875   0.00475   295.974   686.719   1.046   1.046   0.042   0.042   0.000   0.000
0.02125   0.00475   296.731   686.719   1.046   1.046   0.042   0.042   0.000   0.000
0.02375   0.00475   297.655   686.719   1.046   1.046   0.042   0.042   0.000   0.000
0.02625   0.00475   298.767   686.719   1.046   1.046   0.042   0.042   0.000   0.000
0.02875   0.00475   300.077   686.719   1.046   1.046   0.042   0.042   0.000   0.000
0.03125   0.00475   301.545   686.719   1.046   1.046   0.042   0.042   0.000   0.000
0.03375   0.00475   303.026   686.719   1.046   1.046   0.042   0.042   0.000   0.000
0.03625   0.00475   304.480   686.719   1.046   1.046   0.042   0.042   0.000   0.000
0.03875   0.00475   305.916   686.719   1.046   1.046   0.042   0.042   0.000   0.000
0.04125   0.00475   307.359   686.719   1.046   1.046   0.042   0.042   0.000   0.000
0.04375   0.00475   308.861   686.719   1.046   1.046   0.042   0.042   0.000   0.000
0.04625   0.00475   310.992   686.719   1.046   1.046   0.042   0.042   0.000   0.000
0.04875   0.00475   322.692   686.719   1.046   1.046   0.042   0.000   0.000   6.081
0.00125   0.00425   293.529   686.719   1.046   2.085   0.000   0.042   0.000   0.000
0.00375   0.00425   293.570   686.719   1.046   2.085   0.042   0.042   0.000   0.000
0.00625   0.00425   293.655   686.719   1.046   2.085   0.042   0.042   0.000   0.000
0.00875   0.00425   293.787   686.719   1.046   2.085   0.042   0.042   0.000   0.000
0.01125   0.00425   293.972   686.719   1.046   2.085   0.042   0.042   0.000   0.000
0.01375   0.00425   294.216   686.719   1.046   2.085   0.042   0.042   0.000   0.000
0.01625   0.00425   294.527   686.719   1.046   2.085   0.042   0.042   0.000   0.000
0.01875   0.00425   294.918   686.719   1.046   2.085   0.042   0.042   0.000   0.000
0.02125   0.00425   295.398   686.719   1.046   2.085   0.042   0.042   0.000   0.000
0.02375   0.00425   295.980   686.719   1.046   2.085   0.042   0.042   0.000   0.000
0.02625   0.00425   296.678   686.719   1.046   2.085   0.042   0.042   0.000   0.000
0.02875   0.00425   297.498   686.719   1.046   2.085   0.042   0.042   0.000   0.000
0.03125   0.00425   298.433   686.719   1.046   2.085   0.042   0.042   0.000   0.000
0.03375   0.00425   299.438   686.719   1.046   2.085   0.042   0.042   0.000   0.000
0.03625   0.00425   300.506   686.719   1.046   2.085   0.042   0.042   0.000   0.000
0.03875   0.00425   301.644   686.719   1.046   2.085   0.042   0.042   0.000   0.000
0.04125   0.00425   302.865   686.719   1.046   2.085   0.042   0.042   0.000   0.000
0.04375   0.00425   304.196   686.719   1.046   2.085   0.042   0.042   0.000   0.000
0.04625   0.00425   305.890   686.719   1.046   2.085   0.042   0.042   0.000   0.000
0.04875   0.00425   312.629   686.719   1.046   2.085   0.042   0.000   0.000   6.092
0.00125   0.00375   293.511   1137.797   2.085   268.000   0.000   10.720   0.000   0.000
0.00375   0.00375   293.547   1137.797   2.085   268.000   10.720   10.720   0.000   0.000
0.00625   0.00375   293.620   1137.797   2.085   268.000   10.720   10.720   0.000   0.000
0.00875   0.00375   293.732   1137.797   2.085   268.000   10.720   10.720   0.000   0.000
0.01125   0.00375   293.887   1137.797   2.085   268.000   10.720   10.720   0.000   0.000
0.01375   0.00375   294.091   1137.797   2.085   268.000   10.720   10.720   0.000   0.000
0.01625   0.00375   294.347   1137.797   2.085   268.000   10.720   10.720   0.000   0.000
0.01875   0.00375   294.663   1137.797   2.085   268.000   10.720   10.720   0.000   0.000
0.02125   0.00375   295.045   1137.797   2.085   268.000   10.720   10.720   0.000   0.000
0.02375   0.00375   295.502   1137.797   2.085   268.000   10.720   10.720   0.000   0.000
0.02625   0.00375   296.039   1137.797   2.085   268.000   10.720   10.720   0.000   0.000
0.02875   0.00375   296.663   1137.797   2.085   268.000   10.720   10.720   0.000   0.000
0.03125   0.00375   297.381   1137.797   2.085   268.000   10.720   10.720   0.000   0.000
0.03375   0.00375   298.198   1137.797   2.085   268.000   10.720   10.720   0.000   0.000
0.03625   0.00375   299.118   1137.797   2.085   268.000   10.720   10.720   0.000   0.000
0.03875   0.00375   300.148   1137.797   2.085   268.000   10.720   10.720   0.000   0.000
0.04125   0.00375   301.294   1137.797   2.085   268.000   10.720   10.720   0.000   0.000
0.04375   0.00375   302.564   1137.797   2.085   268.000   10.720   10.720   0.000   0.000
0.04625   0.00375   303.970   1137.797   2.085   268.000   10.720   10.720   0.000   0.000
0.04875   0.00375   305.552   1137.797   2.085   268.000   10.720   0.000   0.000   16.263
0.00125   0.00325   293.511   1137.797   268.000   268.000   0.000   10.720   0.000   0.000
0.00375   0.00325   293.547   1137.797   268.000   268.000   10.720   10.720   0.000   0.000
0.00625   0.00325   293.619   1137.797   268.000   268.000   10.720   10.720   0.000   0.000
0.00875   0.00325   293.732   1137.797   268.000   268.000   10.720   10.720   0.000   0.000
0.01125   0.00325   293.887   1137.797   268.000   268.000   10.720   10.720   0.000   0.000
0.01375   0.00325   294.090   1137.797   268.000   268.000   10.720   10.720   0.000   0.000
0.01625   0.00325   294.346   1137.797   268.000   268.000   10.720   10.720   0.000   0.000
0.01875   0.00325   294.661   1137.797   268.000   268.000   10.720   10.720   0.000   0.000
0.02125   0.00325   295.043   1137.797   268.000   268.000   10.720   10.720   0.000   0.000
0.02375   0.00325   295.498   1137.797   268.000   268.000   10.720   10.720   0.000   0.000
0.02625   0.00325   296.034   1137.797   268.000   268.000   10.720   10.720   0.000   0.000
0.02875   0.00325   296.658   1137.797   268.000   268.000   10.720   10.720   0.000   0.000
0.03125   0.00325   297.374   1137.797   268.000   268.000   10.720   10.720   0.000   0.000
0.03375   0.00325   298.189   1137.797   268.000   268.000   10.720   10.720   0.000   0.000
0.03625   0.00325   299.109   1137.797   268.000   268.000   10.720   10.720   0.000   0.000
0.03875   0.00325   300.138   1137.797   268.000   268.000   10.720   10.720   0.000   0.000
0.04125   0.00325   301.284   1137.797   268.000   268.000   10.720   10.720   0.000   0.000
0.04375   0.00325   302.553   1137.797   268.000   268.000   10.720   10.720   0.000   0.000
0.04625   0.00325   303.955   1137.797   268.000   268.000   10.720   10.720   0.000   0.000
0.04875   0.00325   305.507   1137.797   268.000   268.000   10.720   0.000   0.000   16.263
0.00125   0.00275   293.511   1137.797   268.000   268.000   0.000   10.720   0.000   0.000
0.00375   0.00275   293.547   1137.797   268.000   268.000   10.720   10.720   0.000   0.000
0.00625   0.00275   293.619   1137.797   268.000   268.000   10.720   10.720   0.000   0.000
0.00875   0.00275   293.731   1137.797   268.000   268.000   10.720   10.720   0.000   0.000
0.01125   0.00275   293.886   1137.797   268.000   268.000   10.720   10.720   0.000   0.000
0.01375   0.00275   294.089   1137.797   268.000   268.000   10.720   10.720   0.000   0.000
0.01625   0.00275   294.345   1137.797   268.000   268.000   10.720   10.720   0.000   0.000
0.01875   0.00275   294.660   1137.797   268.000   268.000   10.720   10.720   0.000   0.000
0.02125   0.00275   295.041   1137.797   268.000   268.000   10.720   10.720   0.000   0.000
0.02375   0.00275   295.496   1137.797   268.000   268.000   10.720   10.720   0.000   0.000
0.02625   0.00275   296.031   1137.797   268.000   268.000   10.720   10.720   0.000   0.000
0.02875   0.00275   296.653   1137.797   268.000   268.000   10.720   10.720   0.000   0.000
0.03125   0.00275   297.368   1137.797   268.000   268.000   10.720   10.720   0.000   0.000
0.03375   0.00275   298.182   1137.797   268.000   268.000   10.720   10.720   0.000   0.000
0.03625   0.00275   299.101   1137.797   268.000   268.000   10.720   10.720   0.000   0.000
0.03875   0.00275   300.129   1137.797   268.000   268.000   10.720   10.720   0.000   0.000
0.04125   0.00275   301.274   1137.797   268.000   268.000   10.720   10.720   0.000   0.000
0.04375   0.00275   302.542   1137.797   268.000   268.000   10.720   10.720   0.000   0.000
0.04625   0.00275   303.940   1137.797   268.000   268.000   10.720   10.720   0.000   0.000
0.04875   0.00275   305.470   1137.797   268.000   268.000   10.720   0.000   0.000   16.263
0.00125   0.00225   293.511   1137.797   268.000   268.000   0.000   10.720   0.000   0.000
0.00375   0.00225   293.546   1137.797   268.000   268.000   10.720   10.720   0.000   0.000
0.00625   0.00225   293.619   1137.797   268.000   268.000   10.720   10.720   0.000   0.000
0.00875   0.00225   293.731   1137.797   268.000   268.000   10.720   10.720   0.000   0.000
0.01125   0.00225   293.886   1137.797   268.000   268.000   10.720   10.720   0.000   0.000
0.01375   0.00225   294.088   1137.797   268.000   268.000   10.720   10.720   0.000   0.000
0.01625   0.00225   294.344   1137.797   268.000   268.000   10.720   10.720   0.000   0.000
0.01875   0.00225   294.658   1137.797   268.000   268.000   10.720   10.720   0.000   0.000
0.02125   0.00225   295.039   1137.797   268.000   268.000   10.720   10.720   0.000   0.000
0.02375   0.00225   295.493   1137.797   268.000   268.000   10.720   10.720   0.000   0.000
0.02625   0.00225   296.027   1137.797   268.000   268.000   10.720   10.720   0.000   0.000
0.02875   0.00225   296.649   1137.797   268.000   268.000   10.720   10.720   0.000   0.000
0.03125   0.00225   297.363   1137.797   268.000   268.000   10.720   10.720   0.000   0.000
0.03375   0.00225   298.176   1137.797   268.000   268.000   10.720   10.720   0.000   0.000
0.03625   0.00225   299.094   1137.797   268.000   268.000   10.720   10.720   0.000   0.000
0.03875   0.00225   300.122   1137.797   268.000   268.000   10.720   10.720   0.000   0.000
0.04125   0.00225   301.267   1137.797   268.000   268.000   10.720   10.720   0.000   0.000
0.04375   0.00225   302.534   1137.797   268.000   268.000   10.720   10.720   0.000   0.000
0.04625   0.00225   303.928   1137.797   268.000   268.000   10.720   10.720   0.000   0.000
0.04875   0.00225   305.440   1137.797   268.000   268.000   10.720   0.000   0.000   16.263
0.00125   0.00175   293.511   1137.797   268.000   268.000   0.000   10.720   0.000   0.000
0.00375   0.00175   293.546   1137.797   268.000   268.000   10.720   10.720   0.000   0.000
0.00625   0.00175   293.619   1137.797   268.000   268.000   10.720   10.720   0.000   0.000
0.00875   0.00175   293.731   1137.797   268.000   268.000   10.720   10.720   0.000   0.000
0.01125   0.00175   293.886   1137.797   268.000   268.000   10.720   10.720   0.000   0.000
0.01375   0.00175   294.088   1137.797   268.000   268.000   10.720   10.720   0.000   0.000
0.01625   0.00175   294.343   1137.797   268.000   268.000   10.720   10.720   0.000   0.000
0.01875   0.00175   294.657   1137.797   268.000   268.000   10.720   10.720   0.000   0.000
0.02125   0.00175   295.038   1137.797   268.000   268.000   10.720   10.720   0.000   0.000