VARIABLES = X, Y, T, ap,an,as,aw,ae,sp,su
ZONE I=20,J=20, F=POINT,t="3.644"
0.00125   0.00975   293.005   1137.797   0.000   268.000   0.000   10.720   0.000   -0.000
0.00375   0.00975   293.009   1137.797   0.000   268.000   10.720   10.720   0.000   -0.000
0.00625   0.00975   293.019   1137.797   0.000   268.000   10.720   10.720   0.000   -0.000
0.00875   0.00975   293.038   1137.797   0.000   268.000   10.720   10.720   0.000   -0.000
0.01125   0.00975   293.075   1137.797   0.000   268.000   10.720   10.720   0.000   -0.000
0.01375   0.00975   293.143   1137.797   0.000   268.000   10.720   10.720   0.000   -0.000
0.01625   0.00975   293.263   1137.797   0.000   268.000   10.720   10.720   0.000   -0.000
0.01875   0.00975   293.465   1137.797   0.000   268.000   10.720   10.720   0.000   -0.000
0.02125   0.00975   293.795   1137.797   0.000   268.000   10.720   10.720   0.000   -0.001
0.02375   0.00975   294.312   1137.797   0.000   268.000   10.720   10.720   0.000   -0.001
0.02625   0.00975   295.100   1137.797   0.000   268.000   10.720   10.720   0.000   -0.002
0.02875   0.00975   296.298   1137.797   0.000   268.000   10.720   10.720   0.000   -0.002
0.03125   0.00975   298.393   1137.797   0.000   268.000   10.720   10.720   0.000   81.401
0.03375   0.00975   299.680   1137.797   0.000   268.000   10.720   10.720   0.000   81.384
0.03625   0.00975   300.660   1137.797   0.000   268.000   10.720   10.720   0.000   81.371
0.03875   0.00975   301.501   1137.797   0.000   268.000   10.720   10.720   0.000   81.360
0.04125   0.00975   302.322   1137.797   0.000   268.000   10.720   10.720   0.000   81.350
0.04375   0.00975   303.229   1137.797   0.000   268.000   10.720   10.720   0.000   81.338
0.04625   0.00975   304.306   1137.797   0.000   268.000   10.720   10.720   0.000   81.323
0.04875   0.00975   305.605   1137.797   0.000   268.000   10.720   0.000   0.000   97.568
0.00125   0.00925   293.005   1137.797   268.000   268.000   0.000   10.720   0.000   0.000
0.00375   0.00925   293.009   1137.797   268.000   268.000   10.720   10.720   0.000   0.000
0.00625   0.00925   293.019   1137.797   268.000   268.000   10.720   10.720   0.000   0.000
0.00875   0.00925   293.038   1137.797   268.000   268.000   10.720   10.720   0.000   0.000
0.01125   0.00925   293.075   1137.797   268.000   268.000   10.720   10.720   0.000   0.000
0.01375   0.00925   293.143   1137.797   268.000   268.000   10.720   10.720   0.000   0.000
0.01625   0.00925   293.262   1137.797   268.000   268.000   10.720   10.720   0.000   0.000
0.01875   0.00925   293.465   1137.797   268.000   268.000   10.720   10.720   0.000   0.000
0.02125   0.00925   293.794   1137.797   268.000   268.000   10.720   10.720   0.000   0.000
0.02375   0.00925   294.311   1137.797   268.000   268.000   10.720   10.720   0.000   0.000
0.02625   0.00925   295.097   1137.797   268.000   268.000   10.720   10.720   0.000   0.000
0.02875   0.00925   296.279   1137.797   268.000   268.000   10.720   10.720   0.000   0.000
0.03125   0.00925   298.143   1137.797   268.000   268.000   10.720   10.720   0.000   0.000
0.03375   0.00925   299.414   1137.797   268.000   268.000   10.720   10.720   0.000   0.000
0.03625   0.00925   300.392   1137.797   268.000   268.000   10.720   10.720   0.000   0.000
0.03875   0.00925   301.232   1137.797   268.000   268.000   10.720   10.720   0.000   0.000
0.04125   0.00925   302.053   1137.797   268.000   268.000   10.720   10.720   0.000   0.000
0.04375   0.00925   302.960   1137.797   268.000   268.000   10.720   10.720   0.000   0.000
0.04625   0.00925   304.037   1137.797   268.000   268.000   10.720   10.720   0.000   0.000
0.04875   0.00925   305.338   1137.797   268.000   268.000   10.720   0.000   0.000   16.264
0.00125   0.00875   293.005   1137.797   268.000   268.000   0.000   10.720   0.000   0.000
0.00375   0.00875   293.009   1137.797   268.000   268.000   10.720   10.720   0.000   0.000
0.00625   0.00875   293.019   1137.797   268.000   268.000   10.720   10.720   0.000   0.000
0.00875   0.00875   293.038   1137.797   268.000   268.000   10.720   10.720   0.000   0.000
0.01125   0.00875   293.075   1137.797   268.000   268.000   10.720   10.720   0.000   0.000
0.01375   0.00875   293.143   1137.797   268.000   268.000   10.720   10.720   0.000   0.000
0.01625   0.00875   293.262   1137.797   268.000   268.000   10.720   10.720   0.000   0.000
0.01875   0.00875   293.464   1137.797   268.000   268.000   10.720   10.720   0.000   0.000
0.02125   0.00875   293.793   1137.797   268.000   268.000   10.720   10.720   0.000   0.000
0.02375   0.00875   294.309   1137.797   268.000   268.000   10.720   10.720   0.000   0.000
0.02625   0.00875   295.091   1137.797   268.000   268.000   10.720   10.720   0.000   0.000
0.02875   0.00875   296.250   1137.797   268.000   268.000   10.720   10.720   0.000   0.000
0.03125   0.00875   297.938   1137.797   268.000   268.000   10.720   10.720   0.000   0.000
0.03375   0.00875   299.186   1137.797   268.000   268.000   10.720   10.720   0.000   0.000
0.03625   0.00875   300.160   1137.797   268.000   268.000   10.720   10.720   0.000   0.000
0.03875   0.00875   300.998   1137.797   268.000   268.000   10.720   10.720   0.000   0.000
0.04125   0.00875   301.819   1137.797   268.000   268.000   10.720   10.720   0.000   0.000
0.04375   0.00875   302.725   1137.797   268.000   268.000   10.720   10.720   0.000   0.000
0.04625   0.00875   303.802   1137.797   268.000   268.000   10.720   10.720   0.000   0.000
0.04875   0.00875   305.106   1137.797   268.000   268.000   10.720   0.000   0.000   16.264
0.00125   0.00825   293.005   1137.797   268.000   268.000   0.000   10.720   0.000   0.000
0.00375   0.00825   293.009   1137.797   268.000   268.000   10.720   10.720   0.000   0.000
0.00625   0.00825   293.018   1137.797   268.000   268.000   10.720   10.720   0.000   0.000
0.00875   0.00825   293.038   1137.797   268.000   268.000   10.720   10.720   0.000   0.000
0.01125   0.00825   293.075   1137.797   268.000   268.000   10.720   10.720   0.000   0.000
0.01375   0.00825   293.142   1137.797   268.000   268.000   10.720   10.720   0.000   0.000
0.01625   0.00825   293.262   1137.797   268.000   268.000   10.720   10.720   0.000   0.000
0.01875   0.00825   293.463   1137.797   268.000   268.000   10.720   10.720   0.000   0.000
0.02125   0.00825   293.792   1137.797   268.000   268.000   10.720   10.720   0.000   0.000
0.02375   0.00825   294.306   1137.797   268.000   268.000   10.720   10.720   0.000   0.000
0.02625   0.00825   295.083   1137.797   268.000   268.000   10.720   10.720   0.000   0.000
0.02875   0.00825   296.217   1137.797   268.000   268.000   10.720   10.720   0.000   0.000
0.03125   0.00825   297.771   1137.797   268.000   268.000   10.720   10.720   0.000   0.000
0.03375   0.00825   298.994   1137.797   268.000   268.000   10.720   10.720   0.000   0.000
0.03625   0.00825   299.962   1137.797   268.000   268.000   10.720   10.720   0.000   0.000
0.03875   0.00825   300.799   1137.797   268.000   268.000   10.720   10.720   0.000   0.000
0.04125   0.00825   301.618   1137.797   268.000   268.000   10.720   10.720   0.000   0.000
0.04375   0.00825   302.524   1137.797   268.000   268.000   10.720   10.720   0.000   0.000
0.04625   0.00825   303.602   1137.797   268.000   268.000   10.720   10.720   0.000   0.000
0.04875   0.00825   304.910   1137.797   268.000   268.000   10.720   0.000   0.000   16.265
0.00125   0.00775   293.005   1137.797   268.000   268.000   0.000   10.720   0.000   0.000
0.00375   0.00775   293.009   1137.797   268.000   268.000   10.720   10.720   0.000   0.000
0.00625   0.00775   293.018   1137.797   268.000   268.000   10.720   10.720   0.000   0.000
0.00875   0.00775   293.038   1137.797   268.000   268.000   10.720   10.720   0.000   0.000
0.01125   0.00775   293.074   1137.797   268.000   268.000   10.720   10.720   0.000   0.000
0.01375   0.00775   293.142   1137.797   268.000   268.000   10.720   10.720   0.000   0.000
0.01625   0.00775   293.261   1137.797   268.000   268.000   10.720   10.720   0.000   0.000
0.01875   0.00775   293.462   1137.797   268.000   268.000   10.720   10.720   0.000   0.000
0.02125   0.00775   293.790   1137.797   268.000   268.000   10.720   10.720   0.000   0.000
0.02375   0.00775   294.303   1137.797   268.000   268.000   10.720   10.720   0.000   0.000
0.02625   0.00775   295.074   1137.797   268.000   268.000   10.720   10.720   0.000   0.000
0.02875   0.00775   296.184   1137.797   268.000   268.000   10.720   10.720   0.000   0.000
0.03125   0.00775   297.639   1137.797   268.000   268.000   10.720   10.720   0.000   0.000
0.03375   0.00775   298.837   1137.797   268.000   268.000   10.720   10.720   0.000   0.000
0.03625   0.00775   299.800   1137.797   268.000   268.000   10.720   10.720   0.000   0.000
0.03875   0.00775   300.634   1137.797   268.000   268.000   10.720   10.720   0.000   0.000
0.04125   0.00775   301.452   1137.797   268.000   268.000   10.720   10.720   0.000   0.000
0.04375   0.00775   302.357   1137.797   268.000   268.000   10.720   10.720   0.000   0.000
0.04625   0.00775   303.435   1137.797   268.000   268.000   10.720   10.720   0.000   0.000
0.04875   0.00775   304.751   1137.797   268.000   268.000   10.720   0.000   0.000   16.265
0.00125   0.00725   293.005   1137.797   268.000   268.000   0.000   10.720   0.000   0.000
0.00375   0.00725   293.009   1137.797   268.000   268.000   10.720   10.720   0.000   0.000
0.00625   0.00725   293.018   1137.797   268.000   268.000   10.720   10.720   0.000   0.000
0.00875   0.00725   293.037   1137.797   268.000   268.000   10.720   10.720   0.000   0.000
0.01125   0.00725   293.074   1137.797   268.000   268.000   10.720   10.720   0.000   0.000
0.01375   0.00725   293.141   1137.797   268.000   268.000   10.720   10.720   0.000   0.000
0.01625   0.00725   293.260   1137.797   268.000   268.000   10.720   10.720   0.000   0.000
0.01875   0.00725   293.461   1137.797   268.000   268.000   10.720   10.720   0.000   0.000
0.02125   0.00725   293.788   1137.797   268.000   268.000   10.720   10.720   0.000   0.000
0.02375   0.00725   294.298   1137.797   268.000   268.000   10.720   10.720   0.000   0.000
0.02625   0.00725   295.064   1137.797   268.000   268.000   10.720   10.720   0.000   0.000
0.02875   0.00725   296.154   1137.797   268.000   268.000   10.720   10.720   0.000   0.000
0.03125   0.00725   297.538   1137.797   268.000   268.000   10.720   10.720   0.000   0.000
0.03375   0.00725   298.716   1137.797   268.000   268.000   10.720   10.720   0.000   0.000
0.03625   0.00725   299.673   1137.797   268.000   268.000   10.720   10.720   0.000   0.000
0.03875   0.00725   300.504   1137.797   268.000   268.000   10.720   10.720   0.000   0.000
0.04125   0.00725   301.320   1137.797   268.000   268.000   10.720   10.720   0.000   0.000
0.04375   0.00725   302.223   1137.797   268.000   268.000   10.720   10.720   0.000   0.000
0.04625   0.00725   303.303   1137.797   268.000   268.000   10.720   10.720   0.000   0.000
0.04875   0.00725   304.628   1137.797   268.000   268.000   10.720   0.000   0.000   16.265
0.00125   0.00675   293.005   1137.797   268.000   268.000   0.000   10.720   0.000   0.000
0.00375   0.00675   293.009   1137.797   268.000   268.000   10.720   10.720   0.000   0.000
0.00625   0.00675   293.018   1137.797   268.000   268.000   10.720   10.720   0.000   0.000
0.00875   0.00675   293.037   1137.797   268.000   268.000   10.720   10.720   0.000   0.000
0.01125   0.00675   293.074   1137.797   268.000   268.000   10.720   10.720   0.000   0.000
0.01375   0.00675   293.141   1137.797   268.000   268.000   10.720   10.720   0.000   0.000
0.01625   0.00675   293.259   1137.797   268.000   268.000   10.720   10.720   0.000   0.000
0.01875   0.00675   293.459   1137.797   268.000   268.000   10.720   10.720   0.000   0.000
0.02125   0.00675   293.785   1137.797   268.000   268.000   10.720   10.720   0.000   0.000
0.02375   0.00675   294.294   1137.797   268.000   268.000   10.720   10.720   0.000   0.000
0.02625   0.00675   295.055   1137.797   268.000   268.000   10.720   10.720   0.000   0.000
0.02875   0.00675   296.129   1137.797   268.000   268.000   10.720   10.720   0.000   0.000
0.03125   0.00675   297.467   1137.797   268.000   268.000   10.720   10.720   0.000   0.000
0.03375   0.00675   298.629   1137.797   268.000   268.000   10.720   10.720   0.000   0.000
0.03625   0.00675   299.580   1137.797   268.000   268.000   10.720   10.720   0.000   0.000
0.03875   0.00675   300.409   1137.797   268.000   268.000   10.720   10.720   0.000   0.000
0.04125   0.00675   301.223   1137.797   268.000   268.000   10.720   10.720   0.000   0.000
0.04375   0.00675   302.124   1137.797   268.000   268.000   10.720   10.720   0.000   0.000
0.04625   0.00675   303.203   1137.797   268.000   268.000   10.720   10.720   0.000   0.000
0.04875   0.00675   304.541   1137.797   268.000   268.000   10.720   0.000   0.000   16.266
0.00125   0.00625   293.005   1137.797   268.000   2.085   0.000   10.720   0.000   0.000
0.00375   0.00625   293.009   1137.797   268.000   2.085   10.720   10.720   0.000   0.000
0.00625   0.00625   293.018   1137.797   268.000   2.085   10.720   10.720   0.000   0.000
0.00875   0.00625   293.037   1137.797   268.000   2.085   10.720   10.720   0.000   0.000
0.01125   0.00625   293.073   1137.797   268.000   2.085   10.720   10.720   0.000   0.000
0.01375   0.00625   293.140   1137.797   268.000   2.085   10.720   10.720   0.000   0.000
0.01625   0.00625   293.258   1137.797   268.000   2.085   10.720   10.720   0.000   0.000
0.01875   0.00625   293.458   1137.797   268.000   2.085   10.720   10.720   0.000   0.000
0.02125   0.00625   293.782   1137.797   268.000   2.085   10.720   10.720   0.000   0.000
0.02375   0.00625   294.289   1137.797   268.000   2.085   10.720   10.720   0.000   0.000
0.02625   0.00625   295.046   1137.797   268.000   2.085   10.720   10.720   0.000   0.000
0.02875   0.00625   296.111   1137.797   268.000   2.085   10.720   10.720   0.000   0.000
0.03125   0.00625   297.423   1137.797   268.000   2.085   10.720   10.720   0.000   0.000
0.03375   0.00625   298.575   1137.797   268.000   2.085   10.720   10.720   0.000   0.000
0.03625   0.00625   299.522   1137.797   268.000   2.085   10.720   10.720   0.000   0.000
0.03875   0.00625   300.348   1137.797   268.000   2.085   10.720   10.720   0.000   0.000
0.04125   0.00625   301.160   1137.797   268.000   2.085   10.720   10.720   0.000   0.000
0.04375   0.00625   302.058   1137.797   268.000   2.085   10.720   10.720   0.000   0.000
0.04625   0.00625   303.136   1137.797   268.000   2.085   10.720   10.720   0.000   0.000
0.04875   0.00625   304.492   1137.797   268.000   2.085   10.720   0.000   0.000   16.266
0.00125   0.00575   293.001   686.719   2.085   1.046   0.000   0.042   0.000   0.000
0.00375   0.00575   293.003   686.719   2.085   1.046   0.042   0.042   0.000   0.000
0.00625   0.00575   293.005   686.719   2.085   1.046   0.042   0.042   0.000   0.000
0.00875   0.00575   293.012   686.719   2.085   1.046   0.042   0.042   0.000   0.000
0.01125   0.00575   293.025   686.719   2.085   1.046   0.042   0.042   0.000   0.000
0.01375   0.00575   293.051   686.719   2.085   1.046   0.042   0.042   0.000   0.000
0.01625   0.00575   293.100   686.719   2.085   1.046   0.042   0.042   0.000   0.000
0.01875   0.00575   293.189   686.719   2.085   1.046   0.042   0.042   0.000   0.000
0.02125   0.00575   293.344   686.719   2.085   1.046   0.042   0.042   0.000   0.000
0.02375   0.00575   293.602   686.719   2.085   1.046   0.042   0.042   0.000   0.000
0.02625   0.00575   294.012   686.719   2.085   1.046   0.042   0.042   0.000   0.000
0.02875   0.00575   294.619   686.719   2.085   1.046   0.042   0.042   0.000   0.000
0.03125   0.00575   295.386   686.719   2.085   1.046   0.042   0.042   0.000   0.000
0.03375   0.00575   296.034   686.719   2.085   1.046   0.042   0.042   0.000   0.000
0.03625   0.00575   296.539   686.719   2.085   1.046   0.042   0.042   0.000   0.000
0.03875   0.00575   296.965   686.719   2.085   1.046   0.042   0.042   0.000   0.000
0.04125   0.00575   297.396   686.719   2.085   1.046   0.042   0.042   0.000   0.000
0.04375   0.00575   297.914   686.719   2.085   1.046   0.042   0.042   0.000   0.000
0.04625   0.00575   298.671   686.719   2.085   1.046   0.042   0.042   0.000   0.000
0.04875   0.00575   303.079   686.719   2.085   1.046   0.042   0.000   0.000   6.101
0.00125   0.00525   293.000   686.719   1.046   1.046   0.000   0.042   0.000   0.000
0.00375   0.00525   293.000   686.719   1.046   1.046   0.042   0.042   0.000   0.000
0.00625   0.00525   293.001   686.719   1.046   1.046   0.042   0.042   0.000   0.000
0.00875   0.00525   293.002   686.719   1.046   1.046   0.042   0.042   0.000   0.000
0.01125   0.00525   293.004   686.719   1.046   1.046   0.042   0.042   0.000   0.000
0.01375   0.00525   293.010   686.719   1.046   1.046   0.042   0.042   0.000   0.000
0.01625   0.00525   293.021   686.719   1.046   1.046   0.042   0.042   0.000   0.000
0.01875   0.00525   293.042   686.719   1.046   1.046   0.042   0.042   0.000   0.000
0.02125   0.00525   293.082   686.719   1.046   1.046   0.042   0.042   0.000   0.000
0.02375   0.00525   293.156   686.719   1.046   1.046   0.042   0.042   0.000   0.000
0.02625   0.00525   293.281   686.719   1.046   1.046   0.042   0.042   0.000   0.000
0.02875   0.00525   293.480   686.719   1.046   1.046   0.042   0.042   0.000   0.000
0.03125   0.00525   293.742   686.719   1.046   1.046   0.042   0.042   0.000   0.000
0.03375   0.00525   293.953   686.719   1.046   1.046   0.042   0.042   0.000   0.000
0.03625   0.00525   294.109   686.719   1.046   1.046   0.042   0.042   0.000   0.000
0.03875   0.00525   294.240   686.719   1.046   1.046   0.042   0.042   0.000   0.000
0.04125   0.00525   294.385   686.719   1.046   1.046   0.042   0.042   0.000   0.000
0.04375   0.00525   294.591   686.719   1.046   1.046   0.042   0.042   0.000   0.000
0.04625   0.00525   295.051   686.719   1.046   1.046   0.042   0.042   0.000   0.000
0.04875   0.00525   301.571   686.719   1.046   1.046   0.042   0.000   0.000   6.102
0.00125   0.00475   293.000   686.719   1.046   1.046   0.000   0.042   0.000   0.000
0.00375   0.00475   293.000   686.719   1.046   1.046   0.042   0.042   0.000   0.000
0.00625   0.00475   293.000   686.719   1.046   1.046   0.042   0.042   0.000   0.000
0.00875   0.00475   293.000   686.719   1.046   1.046   0.042   0.042   0.000   0.000
0.01125   0.00475   293.001   686.719   1.046   1.046   0.042   0.042   0.000   0.000
0.01375   0.00475   293.002   686.719   1.046   1.046   0.042   0.042   0.000   0.000
0.01625   0.00475   293.004   686.719   1.046   1.046   0.042   0.042   0.000   0.000
0.01875   0.00475   293.008   686.719   1.046   1.046   0.042   0.042   0.000   0.000
0.02125   0.00475   293.017   686.719   1.046   1.046   0.042   0.042   0.000   0.000
0.02375   0.00475   293.035   686.719   1.046   1.046   0.042   0.042   0.000   0.000
0.02625   0.00475   293.069   686.719   1.046   1.046   0.042   0.042   0.000   0.000
0.02875   0.00475   293.126   686.719   1.046   1.046   0.042   0.042   0.000   0.000
0.03125   0.00475   293.205   686.719   1.046   1.046   0.042   0.042   0.000   0.000
0.03375   0.00475   293.275   686.719   1.046   1.046   0.042   0.042   0.000   0.000
0.03625   0.00475   293.338   686.719   1.046   1.046   0.042   0.042   0.000   0.000
0.03875   0.00475   293.414   686.719   1.046   1.046   0.042   0.042   0.000   0.000
0.04125   0.00475   293.528   686.719   1.046   1.046   0.042   0.042   0.000   0.000
0.04375   0.00475   293.717   686.719   1.046   1.046   0.042   0.042   0.000   0.000
0.04625   0.00475   294.169   686.719   1.046   1.046   0.042   0.042   0.000   0.000
0.04875   0.00475   300.686   686.719   1.046   1.046   0.042   0.000   0.000   6.103
0.00125   0.00425   293.000   686.719   1.046   2.085   0.000   0.042   0.000   0.000
0.00375   0.00425   293.000   686.719   1.046   2.085   0.042   0.042   0.000   0.000
0.00625   0.00425   293.000   686.719   1.046   2.085   0.042   0.042   0.000   0.000
0.00875   0.00425   293.000   686.719   1.046   2.085   0.042   0.042   0.000   0.000
0.01125   0.00425   293.000   686.719   1.046   2.085   0.042   0.042   0.000   0.000
0.01375   0.00425   293.000   686.719   1.046   2.085   0.042   0.042   0.000   0.000
0.01625   0.00425   293.001   686.719   1.046   2.085   0.042   0.042   0.000   0.000
0.01875   0.00425   293.003   686.719   1.046   2.085   0.042   0.042   0.000   0.000
0.02125   0.00425   293.006   686.719   1.046   2.085   0.042   0.042   0.000   0.000
0.02375   0.00425   293.013   686.719   1.046   2.085   0.042   0.042   0.000   0.000
0.02625   0.00425   293.027   686.719   1.046   2.085   0.042   0.042   0.000   0.000
0.02875   0.00425   293.053   686.719   1.046   2.085   0.042   0.042   0.000   0.000
0.03125   0.00425   293.099   686.719   1.046   2.085   0.042   0.042   0.000   0.000
0.03375   0.00425   293.167   686.719   1.046   2.085   0.042   0.042   0.000   0.000
0.03625   0.00425   293.276   686.719   1.046   2.085   0.042   0.042   0.000   0.000
0.03875   0.00425   293.451   686.719   1.046   2.085   0.042   0.042   0.000   0.000
0.04125   0.00425   293.731   686.719   1.046   2.085   0.042   0.042   0.000   0.000
0.04375   0.00425   294.164   686.719   1.046   2.085   0.042   0.042   0.000   0.000
0.04625   0.00425   294.876   686.719   1.046   2.085   0.042   0.042   0.000   0.000
0.04875   0.00425   299.266   686.719   1.046   2.085   0.042   0.000   0.000   6.105
0.00125   0.00375   293.000   1137.797   2.085   268.000   0.000   10.720   0.000   0.000
0.00375   0.00375   293.000   1137.797   2.085   268.000   10.720   10.720   0.000   0.000
0.00625   0.00375   293.000   1137.797   2.085   268.000   10.720   10.720   0.000   0.000
0.00875   0.00375   293.000   1137.797   2.085   268.000   10.720   10.720   0.000   0.000
0.01125   0.00375   293.000   1137.797   2.085   268.000   10.720   10.720   0.000   0.000
0.01375   0.00375   293.001   1137.797   2.085   268.000   10.720   10.720   0.000   0.000
0.01625   0.00375   293.002   1137.797   2.085   268.000   10.720   10.720   0.000   0.000
0.01875   0.00375   293.005   1137.797   2.085   268.000   10.720   10.720   0.000   0.000
0.02125   0.00375   293.011   1137.797   2.085   268.000   10.720   10.720   0.000   0.000
0.02375   0.00375   293.023   1137.797   2.085   268.000   10.720   10.720   0.000   0.000
0.02625   0.00375   293.047   1137.797   2.085   268.000   10.720   10.720   0.000   0.000
0.02875   0.00375   293.091   1137.797   2.085   268.000   10.720   10.720   0.000   0.000
0.03125   0.00375   293.169   1137.797   2.085   268.000   10.720   10.720   0.000   0.000
0.03375   0.00375   293.300   1137.797   2.085   268.000   10.720   10.720   0.000   0.000
0.03625   0.00375   293.515   1137.797   2.085   268.000   10.720   10.720   0.000   0.000
0.03875   0.00375   293.847   1137.797   2.085   268.000   10.720   10.720   0.000   0.000
0.04125   0.00375   294.343   1137.797   2.085   268.000   10.720   10.720   0.000   0.000
0.04375   0.00375   295.050   1137.797   2.085   268.000   10.720   10.720   0.000   0.000
0.04625   0.00375   296.023   1137.797   2.085   268.000   10.720   10.720   0.000   0.000
0.04875   0.00375   297.333   1137.797   2.085   268.000   10.720   0.000   0.000   16.284
0.00125   0.00325   293.000   1137.797   268.000   268.000   0.000   10.720   0.000   0.000
0.00375   0.00325   293.000   1137.797   268.000   268.000   10.720   10.720   0.000   0.000
0.00625   0.00325   293.000   1137.797   268.000   268.000   10.720   10.720   0.000   0.000
0.00875   0.00325   293.000   1137.797   268.000   268.000   10.720   10.720   0.000   0.000
0.01125   0.00325   293.000   1137.797   268.000   268.000   10.720   10.720   0.000   0.000
0.01375   0.00325   293.001   1137.797   268.000   268.000   10.720   10.720   0.000   0.000
0.01625   0.00325   293.002   1137.797   268.000   268.000   10.720   10.720   0.000   0.000
0.01875   0.00325   293.005   1137.797   268.000   268.000   10.720   10.720   0.000   0.000
0.02125   0.00325   293.011   1137.797   268.000   268.000   10.720   10.720   0.000   0.000
0.02375   0.00325   293.023   1137.797   268.000   268.000   10.720   10.720   0.000   0.000
0.02625   0.00325   293.047   1137.797   268.000   268.000   10.720   10.720   0.000   0.000
0.02875   0.00325   293.091   1137.797   268.000   268.000   10.720   10.720   0.000   0.000
0.03125   0.00325   293.169   1137.797   268.000   268.000   10.720   10.720   0.000   0.000
0.03375   0.00325   293.301   1137.797   268.000   268.000   10.720   10.720   0.000   0.000
0.03625   0.00325   293.516   1137.797   268.000   268.000   10.720   10.720   0.000   0.000
0.03875   0.00325   293.850   1137.797   268.000   268.000   10.720   10.720   0.000   0.000
0.04125   0.00325   294.347   1137.797   268.000   268.000   10.720   10.720   0.000   0.000
0.04375   0.00325   295.056   1137.797   268.000   268.000   10.720   10.720   0.000   0.000
0.04625   0.00325   296.029   1137.797   268.000   268.000   10.720   10.720   0.000   0.000
0.04875   0.00325   297.321   1137.797   268.000   268.000   10.720   0.000   0.000   16.284
0.00125   0.00275   293.000   1137.797   268.000   268.000   0.000   10.720   0.000   0.000
0.00375   0.00275   293.000   1137.797   268.000   268.000   10.720   10.720   0.000   0.000
0.00625   0.00275   293.000   1137.797   268.000   268.000   10.720   10.720   0.000   0.000
0.00875   0.00275   293.000   1137.797   268.000   268.000   10.720   10.720   0.000   0.000
0.01125   0.00275   293.000   1137.797   268.000   268.000   10.720   10.720   0.000   0.000
0.01375   0.00275   293.001   1137.797   268.000   268.000   10.720   10.720   0.000   0.000
0.01625   0.00275   293.002   1137.797   268.000   268.000   10.720   10.720   0.000   0.000
0.01875   0.00275   293.005   1137.797   268.000   268.000   10.720   10.720   0.000   0.000
0.02125   0.00275   293.011   1137.797   268.000   268.000   10.720   10.720   0.000   0.000
0.02375   0.00275   293.023   1137.797   268.000   268.000   10.720   10.720   0.000   0.000
0.02625   0.00275   293.047   1137.797   268.000   268.000   10.720   10.720   0.000   0.000
0.02875   0.00275   293.091   1137.797   268.000   268.000   10.720   10.720   0.000   0.000
0.03125   0.00275   293.169   1137.797   268.000   268.000   10.720   10.720   0.000   0.000
0.03375   0.00275   293.302   1137.797   268.000   268.000   10.720   10.720   0.000   0.000
0.03625   0.00275   293.518   1137.797   268.000   268.000   10.720   10.720   0.000   0.000
0.03875   0.00275   293.852   1137.797   268.000   268.000   10.720   10.720   0.000   0.000
0.04125   0.00275   294.351   1137.797   268.000   268.000   10.720   10.720   0.000   0.000
0.04375   0.00275   295.061   1137.797   268.000   268.000   10.720   10.720   0.000   0.000
0.04625   0.00275   296.034   1137.797   268.000   268.000   10.720   10.720   0.000   0.000
0.04875   0.00275   297.312   1137.797   268.000   268.000   10.720   0.000   0.000   16.284
0.00125   0.00225   293.000   1137.797   268.000   268.000   0.000   10.720   0.000   0.000
0.00375   0.00225   293.000   1137.797   268.000   268.000   10.720   10.720   0.000   0.000
0.00625   0.00225   293.000   1137.797   268.000   268.000   10.720   10.720   0.000   0.000
0.00875   0.00225   293.000   1137.797   268.000   268.000   10.720   10.720   0.000   0.000
0.01125   0.00225   293.000   1137.797   268.000   268.000   10.720   10.720   0.000   0.000
0.01375   0.00225   293.001   1137.797   268.000   268.000   10.720   10.720   0.000   0.000
0.01625   0.00225   293.002   1137.797   268.000   268.000   10.720   10.720   0.000   0.000
0.01875   0.00225   293.005   1137.797   268.000   268.000   10.720   10.720   0.000   0.000
0.02125   0.00225   293.011   1137.797   268.000   268.000   10.720   10.720   0.000   0.000
0.02375   0.00225   293.023   1137.797   268.000   268.000   10.720   10.720   0.000   0.000
0.02625   0.00225   293.047   1137.797   268.000   268.000   10.720   10.720   0.000   0.000
0.02875   0.00225   293.091   1137.797   268.000   268.000   10.720   10.720   0.000   0.000
0.03125   0.00225   293.170   1137.797   268.000   268.000   10.720   10.720   0.000   0.000
0.03375   0.00225   293.303   1137.797   268.000   268.000   10.720   10.720   0.000   0.000
0.03625   0.00225   293.519   1137.797   268.000   268.000   10.720   10.720   0.000   0.000
0.03875   0.00225   293.854   1137.797   268.000   268.000   10.720   10.720   0.000   0.000
0.04125   0.00225   294.354   1137.797   268.000   268.000   10.720   10.720   0.000   0.000
0.04375   0.00225   295.065   1137.797   268.000   268.000   10.720   10.720   0.000   0.000
0.04625   0.00225   296.037   1137.797   268.000   268.000   10.720   10.720   0.000   0.000
0.04875   0.00225   297.306   1137.797   268.000   268.000   10.720   0.000   0.000   16.284
0.00125   0.00175   293.000   1137.797   268.000   268.000   0.000   10.720   0.000   0.000
0.00375   0.00175   293.000   1137.797   268.000   268.000   10.720   10.720   0.000   0.000
0.00625   0.00175   293.000   1137.797   268.000   268.000   10.720   10.720   0.000   0.000
0.00875   0.00175   293.000   1137.797   268.000   268.000   10.720   10.720   0.000   0.000
0.01125   0.00175   293.000   1137.797   268.000   268.000   10.720   10.720   0.000   0.000
0.01375   0.00175   293.001   1137.797   268.000   268.000   10.720   10.720   0.000   0.000
0.01625   0.00175   293.002   1137.797   268.000   268.000   10.720   10.720   0.000   0.000
0.01875   0.00175   293.005   1137.797   268.000   268.000   10.720   10.720   0.000   0.000
0.02125   0.00175   293.011   1137.797   268.000   268.000   10.720   10.720   0.000   0.000