VARIABLES = X, Y, T, ap,an,as,aw,ae,sp,su
ZONE I=20,J=20, F=POINT,t="3.572"
0.00125   0.00975   293.005   1137.797   0.000   268.000   0.000   10.720   0.000   -0.000
0.00375   0.00975   293.008   1137.797   0.000   268.000   10.720   10.720   0.000   -0.000
0.00625   0.00975   293.017   1137.797   0.000   268.000   10.720   10.720   0.000   -0.000
0.00875   0.00975   293.035   1137.797   0.000   268.000   10.720   10.720   0.000   -0.000
0.01125   0.00975   293.070   1137.797   0.000   268.000   10.720   10.720   0.000   -0.000
0.01375   0.00975   293.135   1137.797   0.000   268.000   10.720   10.720   0.000   -0.000
0.01625   0.00975   293.249   1137.797   0.000   268.000   10.720   10.720   0.000   -0.000
0.01875   0.00975   293.445   1137.797   0.000   268.000   10.720   10.720   0.000   -0.000
0.02125   0.00975   293.765   1137.797   0.000   268.000   10.720   10.720   0.000   -0.001
0.02375   0.00975   294.271   1137.797   0.000   268.000   10.720   10.720   0.000   -0.001
0.02625   0.00975   295.044   1137.797   0.000   268.000   10.720   10.720   0.000   -0.002
0.02875   0.00975   296.226   1137.797   0.000   268.000   10.720   10.720   0.000   -0.002
0.03125   0.00975   298.304   1137.797   0.000   268.000   10.720   10.720   0.000   81.402
0.03375   0.00975   299.572   1137.797   0.000   268.000   10.720   10.720   0.000   81.386
0.03625   0.00975   300.533   1137.797   0.000   268.000   10.720   10.720   0.000   81.373
0.03875   0.00975   301.356   1137.797   0.000   268.000   10.720   10.720   0.000   81.362
0.04125   0.00975   302.162   1137.797   0.000   268.000   10.720   10.720   0.000   81.352
0.04375   0.00975   303.055   1137.797   0.000   268.000   10.720   10.720   0.000   81.340
0.04625   0.00975   304.122   1137.797   0.000   268.000   10.720   10.720   0.000   81.326
0.04875   0.00975   305.416   1137.797   0.000   268.000   10.720   0.000   0.000   97.571
0.00125   0.00925   293.005   1137.797   268.000   268.000   0.000   10.720   0.000   0.000
0.00375   0.00925   293.008   1137.797   268.000   268.000   10.720   10.720   0.000   0.000
0.00625   0.00925   293.017   1137.797   268.000   268.000   10.720   10.720   0.000   0.000
0.00875   0.00925   293.035   1137.797   268.000   268.000   10.720   10.720   0.000   0.000
0.01125   0.00925   293.070   1137.797   268.000   268.000   10.720   10.720   0.000   0.000
0.01375   0.00925   293.134   1137.797   268.000   268.000   10.720   10.720   0.000   0.000
0.01625   0.00925   293.249   1137.797   268.000   268.000   10.720   10.720   0.000   0.000
0.01875   0.00925   293.445   1137.797   268.000   268.000   10.720   10.720   0.000   0.000
0.02125   0.00925   293.765   1137.797   268.000   268.000   10.720   10.720   0.000   0.000
0.02375   0.00925   294.270   1137.797   268.000   268.000   10.720   10.720   0.000   0.000
0.02625   0.00925   295.041   1137.797   268.000   268.000   10.720   10.720   0.000   0.000
0.02875   0.00925   296.207   1137.797   268.000   268.000   10.720   10.720   0.000   0.000
0.03125   0.00925   298.053   1137.797   268.000   268.000   10.720   10.720   0.000   0.000
0.03375   0.00925   299.306   1137.797   268.000   268.000   10.720   10.720   0.000   0.000
0.03625   0.00925   300.265   1137.797   268.000   268.000   10.720   10.720   0.000   0.000
0.03875   0.00925   301.087   1137.797   268.000   268.000   10.720   10.720   0.000   0.000
0.04125   0.00925   301.893   1137.797   268.000   268.000   10.720   10.720   0.000   0.000
0.04375   0.00925   302.786   1137.797   268.000   268.000   10.720   10.720   0.000   0.000
0.04625   0.00925   303.853   1137.797   268.000   268.000   10.720   10.720   0.000   0.000
0.04875   0.00925   305.148   1137.797   268.000   268.000   10.720   0.000   0.000   16.264
0.00125   0.00875   293.005   1137.797   268.000   268.000   0.000   10.720   0.000   0.000
0.00375   0.00875   293.008   1137.797   268.000   268.000   10.720   10.720   0.000   0.000
0.00625   0.00875   293.017   1137.797   268.000   268.000   10.720   10.720   0.000   0.000
0.00875   0.00875   293.035   1137.797   268.000   268.000   10.720   10.720   0.000   0.000
0.01125   0.00875   293.070   1137.797   268.000   268.000   10.720   10.720   0.000   0.000
0.01375   0.00875   293.134   1137.797   268.000   268.000   10.720   10.720   0.000   0.000
0.01625   0.00875   293.249   1137.797   268.000   268.000   10.720   10.720   0.000   0.000
0.01875   0.00875   293.444   1137.797   268.000   268.000   10.720   10.720   0.000   0.000
0.02125   0.00875   293.764   1137.797   268.000   268.000   10.720   10.720   0.000   0.000
0.02375   0.00875   294.268   1137.797   268.000   268.000   10.720   10.720   0.000   0.000
0.02625   0.00875   295.035   1137.797   268.000   268.000   10.720   10.720   0.000   0.000
0.02875   0.00875   296.178   1137.797   268.000   268.000   10.720   10.720   0.000   0.000
0.03125   0.00875   297.848   1137.797   268.000   268.000   10.720   10.720   0.000   0.000
0.03375   0.00875   299.078   1137.797   268.000   268.000   10.720   10.720   0.000   0.000
0.03625   0.00875   300.033   1137.797   268.000   268.000   10.720   10.720   0.000   0.000
0.03875   0.00875   300.853   1137.797   268.000   268.000   10.720   10.720   0.000   0.000
0.04125   0.00875   301.658   1137.797   268.000   268.000   10.720   10.720   0.000   0.000
0.04375   0.00875   302.551   1137.797   268.000   268.000   10.720   10.720   0.000   0.000
0.04625   0.00875   303.619   1137.797   268.000   268.000   10.720   10.720   0.000   0.000
0.04875   0.00875   304.917   1137.797   268.000   268.000   10.720   0.000   0.000   16.265
0.00125   0.00825   293.005   1137.797   268.000   268.000   0.000   10.720   0.000   0.000
0.00375   0.00825   293.008   1137.797   268.000   268.000   10.720   10.720   0.000   0.000
0.00625   0.00825   293.017   1137.797   268.000   268.000   10.720   10.720   0.000   0.000
0.00875   0.00825   293.035   1137.797   268.000   268.000   10.720   10.720   0.000   0.000
0.01125   0.00825   293.070   1137.797   268.000   268.000   10.720   10.720   0.000   0.000
0.01375   0.00825   293.134   1137.797   268.000   268.000   10.720   10.720   0.000   0.000
0.01625   0.00825   293.248   1137.797   268.000   268.000   10.720   10.720   0.000   0.000
0.01875   0.00825   293.443   1137.797   268.000   268.000   10.720   10.720   0.000   0.000
0.02125   0.00825   293.762   1137.797   268.000   268.000   10.720   10.720   0.000   0.000
0.02375   0.00825   294.265   1137.797   268.000   268.000   10.720   10.720   0.000   0.000
0.02625   0.00825   295.027   1137.797   268.000   268.000   10.720   10.720   0.000   0.000
0.02875   0.00825   296.145   1137.797   268.000   268.000   10.720   10.720   0.000   0.000
0.03125   0.00825   297.682   1137.797   268.000   268.000   10.720   10.720   0.000   0.000
0.03375   0.00825   298.886   1137.797   268.000   268.000   10.720   10.720   0.000   0.000
0.03625   0.00825   299.835   1137.797   268.000   268.000   10.720   10.720   0.000   0.000
0.03875   0.00825   300.654   1137.797   268.000   268.000   10.720   10.720   0.000   0.000
0.04125   0.00825   301.458   1137.797   268.000   268.000   10.720   10.720   0.000   0.000
0.04375   0.00825   302.350   1137.797   268.000   268.000   10.720   10.720   0.000   0.000
0.04625   0.00825   303.418   1137.797   268.000   268.000   10.720   10.720   0.000   0.000
0.04875   0.00825   304.721   1137.797   268.000   268.000   10.720   0.000   0.000   16.265
0.00125   0.00775   293.005   1137.797   268.000   268.000   0.000   10.720   0.000   0.000
0.00375   0.00775   293.008   1137.797   268.000   268.000   10.720   10.720   0.000   0.000
0.00625   0.00775   293.017   1137.797   268.000   268.000   10.720   10.720   0.000   0.000
0.00875   0.00775   293.035   1137.797   268.000   268.000   10.720   10.720   0.000   0.000
0.01125   0.00775   293.069   1137.797   268.000   268.000   10.720   10.720   0.000   0.000
0.01375   0.00775   293.134   1137.797   268.000   268.000   10.720   10.720   0.000   0.000
0.01625   0.00775   293.248   1137.797   268.000   268.000   10.720   10.720   0.000   0.000
0.01875   0.00775   293.442   1137.797   268.000   268.000   10.720   10.720   0.000   0.000
0.02125   0.00775   293.761   1137.797   268.000   268.000   10.720   10.720   0.000   0.000
0.02375   0.00775   294.261   1137.797   268.000   268.000   10.720   10.720   0.000   0.000
0.02625   0.00775   295.018   1137.797   268.000   268.000   10.720   10.720   0.000   0.000
0.02875   0.00775   296.112   1137.797   268.000   268.000   10.720   10.720   0.000   0.000
0.03125   0.00775   297.549   1137.797   268.000   268.000   10.720   10.720   0.000   0.000
0.03375   0.00775   298.729   1137.797   268.000   268.000   10.720   10.720   0.000   0.000
0.03625   0.00775   299.673   1137.797   268.000   268.000   10.720   10.720   0.000   0.000
0.03875   0.00775   300.490   1137.797   268.000   268.000   10.720   10.720   0.000   0.000
0.04125   0.00775   301.292   1137.797   268.000   268.000   10.720   10.720   0.000   0.000
0.04375   0.00775   302.183   1137.797   268.000   268.000   10.720   10.720   0.000   0.000
0.04625   0.00775   303.252   1137.797   268.000   268.000   10.720   10.720   0.000   0.000
0.04875   0.00775   304.561   1137.797   268.000   268.000   10.720   0.000   0.000   16.266
0.00125   0.00725   293.005   1137.797   268.000   268.000   0.000   10.720   0.000   0.000
0.00375   0.00725   293.008   1137.797   268.000   268.000   10.720   10.720   0.000   0.000
0.00625   0.00725   293.017   1137.797   268.000   268.000   10.720   10.720   0.000   0.000
0.00875   0.00725   293.035   1137.797   268.000   268.000   10.720   10.720   0.000   0.000
0.01125   0.00725   293.069   1137.797   268.000   268.000   10.720   10.720   0.000   0.000
0.01375   0.00725   293.133   1137.797   268.000   268.000   10.720   10.720   0.000   0.000
0.01625   0.00725   293.247   1137.797   268.000   268.000   10.720   10.720   0.000   0.000
0.01875   0.00725   293.441   1137.797   268.000   268.000   10.720   10.720   0.000   0.000
0.02125   0.00725   293.758   1137.797   268.000   268.000   10.720   10.720   0.000   0.000
0.02375   0.00725   294.257   1137.797   268.000   268.000   10.720   10.720   0.000   0.000
0.02625   0.00725   295.009   1137.797   268.000   268.000   10.720   10.720   0.000   0.000
0.02875   0.00725   296.082   1137.797   268.000   268.000   10.720   10.720   0.000   0.000
0.03125   0.00725   297.449   1137.797   268.000   268.000   10.720   10.720   0.000   0.000
0.03375   0.00725   298.608   1137.797   268.000   268.000   10.720   10.720   0.000   0.000
0.03625   0.00725   299.546   1137.797   268.000   268.000   10.720   10.720   0.000   0.000
0.03875   0.00725   300.360   1137.797   268.000   268.000   10.720   10.720   0.000   0.000
0.04125   0.00725   301.160   1137.797   268.000   268.000   10.720   10.720   0.000   0.000
0.04375   0.00725   302.050   1137.797   268.000   268.000   10.720   10.720   0.000   0.000
0.04625   0.00725   303.119   1137.797   268.000   268.000   10.720   10.720   0.000   0.000
0.04875   0.00725   304.438   1137.797   268.000   268.000   10.720   0.000   0.000   16.266
0.00125   0.00675   293.005   1137.797   268.000   268.000   0.000   10.720   0.000   0.000
0.00375   0.00675   293.008   1137.797   268.000   268.000   10.720   10.720   0.000   0.000
0.00625   0.00675   293.017   1137.797   268.000   268.000   10.720   10.720   0.000   0.000
0.00875   0.00675   293.034   1137.797   268.000   268.000   10.720   10.720   0.000   0.000
0.01125   0.00675   293.069   1137.797   268.000   268.000   10.720   10.720   0.000   0.000
0.01375   0.00675   293.133   1137.797   268.000   268.000   10.720   10.720   0.000   0.000
0.01625   0.00675   293.246   1137.797   268.000   268.000   10.720   10.720   0.000   0.000
0.01875   0.00675   293.439   1137.797   268.000   268.000   10.720   10.720   0.000   0.000
0.02125   0.00675   293.756   1137.797   268.000   268.000   10.720   10.720   0.000   0.000
0.02375   0.00675   294.253   1137.797   268.000   268.000   10.720   10.720   0.000   0.000
0.02625   0.00675   295.000   1137.797   268.000   268.000   10.720   10.720   0.000   0.000
0.02875   0.00675   296.058   1137.797   268.000   268.000   10.720   10.720   0.000   0.000
0.03125   0.00675   297.377   1137.797   268.000   268.000   10.720   10.720   0.000   0.000
0.03375   0.00675   298.521   1137.797   268.000   268.000   10.720   10.720   0.000   0.000
0.03625   0.00675   299.454   1137.797   268.000   268.000   10.720   10.720   0.000   0.000
0.03875   0.00675   300.265   1137.797   268.000   268.000   10.720   10.720   0.000   0.000
0.04125   0.00675   301.063   1137.797   268.000   268.000   10.720   10.720   0.000   0.000
0.04375   0.00675   301.951   1137.797   268.000   268.000   10.720   10.720   0.000   0.000
0.04625   0.00675   303.020   1137.797   268.000   268.000   10.720   10.720   0.000   0.000
0.04875   0.00675   304.352   1137.797   268.000   268.000   10.720   0.000   0.000   16.266
0.00125   0.00625   293.005   1137.797   268.000   2.085   0.000   10.720   0.000   0.000
0.00375   0.00625   293.008   1137.797   268.000   2.085   10.720   10.720   0.000   0.000
0.00625   0.00625   293.017   1137.797   268.000   2.085   10.720   10.720   0.000   0.000
0.00875   0.00625   293.034   1137.797   268.000   2.085   10.720   10.720   0.000   0.000
0.01125   0.00625   293.069   1137.797   268.000   2.085   10.720   10.720   0.000   0.000
0.01375   0.00625   293.132   1137.797   268.000   2.085   10.720   10.720   0.000   0.000
0.01625   0.00625   293.245   1137.797   268.000   2.085   10.720   10.720   0.000   0.000
0.01875   0.00625   293.438   1137.797   268.000   2.085   10.720   10.720   0.000   0.000
0.02125   0.00625   293.753   1137.797   268.000   2.085   10.720   10.720   0.000   0.000
0.02375   0.00625   294.248   1137.797   268.000   2.085   10.720   10.720   0.000   0.000
0.02625   0.00625   294.991   1137.797   268.000   2.085   10.720   10.720   0.000   0.000
0.02875   0.00625   296.039   1137.797   268.000   2.085   10.720   10.720   0.000   0.000
0.03125   0.00625   297.334   1137.797   268.000   2.085   10.720   10.720   0.000   0.000
0.03375   0.00625   298.468   1137.797   268.000   2.085   10.720   10.720   0.000   0.000
0.03625   0.00625   299.396   1137.797   268.000   2.085   10.720   10.720   0.000   0.000
0.03875   0.00625   300.205   1137.797   268.000   2.085   10.720   10.720   0.000   0.000
0.04125   0.00625   301.000   1137.797   268.000   2.085   10.720   10.720   0.000   0.000
0.04375   0.00625   301.885   1137.797   268.000   2.085   10.720   10.720   0.000   0.000
0.04625   0.00625   302.953   1137.797   268.000   2.085   10.720   10.720   0.000   0.000
0.04875   0.00625   304.303   1137.797   268.000   2.085   10.720   0.000   0.000   16.266
0.00125   0.00575   293.001   686.719   2.085   1.046   0.000   0.042   0.000   0.000
0.00375   0.00575   293.002   686.719   2.085   1.046   0.042   0.042   0.000   0.000
0.00625   0.00575   293.005   686.719   2.085   1.046   0.042   0.042   0.000   0.000
0.00875   0.00575   293.011   686.719   2.085   1.046   0.042   0.042   0.000   0.000
0.01125   0.00575   293.023   686.719   2.085   1.046   0.042   0.042   0.000   0.000
0.01375   0.00575   293.047   686.719   2.085   1.046   0.042   0.042   0.000   0.000
0.01625   0.00575   293.094   686.719   2.085   1.046   0.042   0.042   0.000   0.000
0.01875   0.00575   293.178   686.719   2.085   1.046   0.042   0.042   0.000   0.000
0.02125   0.00575   293.327   686.719   2.085   1.046   0.042   0.042   0.000   0.000
0.02375   0.00575   293.577   686.719   2.085   1.046   0.042   0.042   0.000   0.000
0.02625   0.00575   293.976   686.719   2.085   1.046   0.042   0.042   0.000   0.000
0.02875   0.00575   294.569   686.719   2.085   1.046   0.042   0.042   0.000   0.000
0.03125   0.00575   295.320   686.719   2.085   1.046   0.042   0.042   0.000   0.000
0.03375   0.00575   295.953   686.719   2.085   1.046   0.042   0.042   0.000   0.000
0.03625   0.00575   296.443   686.719   2.085   1.046   0.042   0.042   0.000   0.000
0.03875   0.00575   296.855   686.719   2.085   1.046   0.042   0.042   0.000   0.000
0.04125   0.00575   297.273   686.719   2.085   1.046   0.042   0.042   0.000   0.000
0.04375   0.00575   297.779   686.719   2.085   1.046   0.042   0.042   0.000   0.000
0.04625   0.00575   298.522   686.719   2.085   1.046   0.042   0.042   0.000   0.000
0.04875   0.00575   302.888   686.719   2.085   1.046   0.042   0.000   0.000   6.101
0.00125   0.00525   293.000   686.719   1.046   1.046   0.000   0.042   0.000   0.000
0.00375   0.00525   293.000   686.719   1.046   1.046   0.042   0.042   0.000   0.000
0.00625   0.00525   293.001   686.719   1.046   1.046   0.042   0.042   0.000   0.000
0.00875   0.00525   293.002   686.719   1.046   1.046   0.042   0.042   0.000   0.000
0.01125   0.00525   293.004   686.719   1.046   1.046   0.042   0.042   0.000   0.000
0.01375   0.00525   293.009   686.719   1.046   1.046   0.042   0.042   0.000   0.000
0.01625   0.00525   293.019   686.719   1.046   1.046   0.042   0.042   0.000   0.000
0.01875   0.00525   293.039   686.719   1.046   1.046   0.042   0.042   0.000   0.000
0.02125   0.00525   293.077   686.719   1.046   1.046   0.042   0.042   0.000   0.000
0.02375   0.00525   293.147   686.719   1.046   1.046   0.042   0.042   0.000   0.000
0.02625   0.00525   293.267   686.719   1.046   1.046   0.042   0.042   0.000   0.000
0.02875   0.00525   293.459   686.719   1.046   1.046   0.042   0.042   0.000   0.000
0.03125   0.00525   293.712   686.719   1.046   1.046   0.042   0.042   0.000   0.000
0.03375   0.00525   293.915   686.719   1.046   1.046   0.042   0.042   0.000   0.000
0.03625   0.00525   294.064   686.719   1.046   1.046   0.042   0.042   0.000   0.000
0.03875   0.00525   294.188   686.719   1.046   1.046   0.042   0.042   0.000   0.000
0.04125   0.00525   294.327   686.719   1.046   1.046   0.042   0.042   0.000   0.000
0.04375   0.00525   294.524   686.719   1.046   1.046   0.042   0.042   0.000   0.000
0.04625   0.00525   294.970   686.719   1.046   1.046   0.042   0.042   0.000   0.000
0.04875   0.00525   301.401   686.719   1.046   1.046   0.042   0.000   0.000   6.103
0.00125   0.00475   293.000   686.719   1.046   1.046   0.000   0.042   0.000   0.000
0.00375   0.00475   293.000   686.719   1.046   1.046   0.042   0.042   0.000   0.000
0.00625   0.00475   293.000   686.719   1.046   1.046   0.042   0.042   0.000   0.000
0.00875   0.00475   293.000   686.719   1.046   1.046   0.042   0.042   0.000   0.000
0.01125   0.00475   293.001   686.719   1.046   1.046   0.042   0.042   0.000   0.000
0.01375   0.00475   293.001   686.719   1.046   1.046   0.042   0.042   0.000   0.000
0.01625   0.00475   293.003   686.719   1.046   1.046   0.042   0.042   0.000   0.000
0.01875   0.00475   293.008   686.719   1.046   1.046   0.042   0.042   0.000   0.000
0.02125   0.00475   293.016   686.719   1.046   1.046   0.042   0.042   0.000   0.000
0.02375   0.00475   293.033   686.719   1.046   1.046   0.042   0.042   0.000   0.000
0.02625   0.00475   293.064   686.719   1.046   1.046   0.042   0.042   0.000   0.000
0.02875   0.00475   293.118   686.719   1.046   1.046   0.042   0.042   0.000   0.000
0.03125   0.00475   293.194   686.719   1.046   1.046   0.042   0.042   0.000   0.000
0.03375   0.00475   293.259   686.719   1.046   1.046   0.042   0.042   0.000   0.000
0.03625   0.00475   293.319   686.719   1.046   1.046   0.042   0.042   0.000   0.000
0.03875   0.00475   293.390   686.719   1.046   1.046   0.042   0.042   0.000   0.000
0.04125   0.00475   293.500   686.719   1.046   1.046   0.042   0.042   0.000   0.000
0.04375   0.00475   293.681   686.719   1.046   1.046   0.042   0.042   0.000   0.000
0.04625   0.00475   294.119   686.719   1.046   1.046   0.042   0.042   0.000   0.000
0.04875   0.00475   300.548   686.719   1.046   1.046   0.042   0.000   0.000   6.103
0.00125   0.00425   293.000   686.719   1.046   2.085   0.000   0.042   0.000   0.000
0.00375   0.00425   293.000   686.719   1.046   2.085   0.042   0.042   0.000   0.000
0.00625   0.00425   293.000   686.719   1.046   2.085   0.042   0.042   0.000   0.000
0.00875   0.00425   293.000   686.719   1.046   2.085   0.042   0.042   0.000   0.000
0.01125   0.00425   293.000   686.719   1.046   2.085   0.042   0.042   0.000   0.000
0.01375   0.00425   293.000   686.719   1.046   2.085   0.042   0.042   0.000   0.000
0.01625   0.00425   293.001   686.719   1.046   2.085   0.042   0.042   0.000   0.000
0.01875   0.00425   293.002   686.719   1.046   2.085   0.042   0.042   0.000   0.000
0.02125   0.00425   293.005   686.719   1.046   2.085   0.042   0.042   0.000   0.000
0.02375   0.00425   293.012   686.719   1.046   2.085   0.042   0.042   0.000   0.000
0.02625   0.00425   293.024   686.719   1.046   2.085   0.042   0.042   0.000   0.000
0.02875   0.00425   293.049   686.719   1.046   2.085   0.042   0.042   0.000   0.000
0.03125   0.00425   293.092   686.719   1.046   2.085   0.042   0.042   0.000   0.000
0.03375   0.00425   293.157   686.719   1.046   2.085   0.042   0.042   0.000   0.000
0.03625   0.00425   293.261   686.719   1.046   2.085   0.042   0.042   0.000   0.000
0.03875   0.00425   293.431   686.719   1.046   2.085   0.042   0.042   0.000   0.000
0.04125   0.00425   293.704   686.719   1.046   2.085   0.042   0.042   0.000   0.000
0.04375   0.00425   294.128   686.719   1.046   2.085   0.042   0.042   0.000   0.000
0.04625   0.00425   294.828   686.719   1.046   2.085   0.042   0.042   0.000   0.000
0.04875   0.00425   299.177   686.719   1.046   2.085   0.042   0.000   0.000   6.105
0.00125   0.00375   293.000   1137.797   2.085   268.000   0.000   10.720   0.000   0.000
0.00375   0.00375   293.000   1137.797   2.085   268.000   10.720   10.720   0.000   0.000
0.00625   0.00375   293.000   1137.797   2.085   268.000   10.720   10.720   0.000   0.000
0.00875   0.00375   293.000   1137.797   2.085   268.000   10.720   10.720   0.000   0.000
0.01125   0.00375   293.000   1137.797   2.085   268.000   10.720   10.720   0.000   0.000
0.01375   0.00375   293.001   1137.797   2.085   268.000   10.720   10.720   0.000   0.000
0.01625   0.00375   293.002   1137.797   2.085   268.000   10.720   10.720   0.000   0.000
0.01875   0.00375   293.005   1137.797   2.085   268.000   10.720   10.720   0.000   0.000
0.02125   0.00375   293.010   1137.797   2.085   268.000   10.720   10.720   0.000   0.000
0.02375   0.00375   293.021   1137.797   2.085   268.000   10.720   10.720   0.000   0.000
0.02625   0.00375   293.044   1137.797   2.085   268.000   10.720   10.720   0.000   0.000
0.02875   0.00375   293.085   1137.797   2.085   268.000   10.720   10.720   0.000   0.000
0.03125   0.00375   293.160   1137.797   2.085   268.000   10.720   10.720   0.000   0.000
0.03375   0.00375   293.287   1137.797   2.085   268.000   10.720   10.720   0.000   0.000
0.03625   0.00375   293.495   1137.797   2.085   268.000   10.720   10.720   0.000   0.000
0.03875   0.00375   293.821   1137.797   2.085   268.000   10.720   10.720   0.000   0.000
0.04125   0.00375   294.310   1137.797   2.085   268.000   10.720   10.720   0.000   0.000
0.04375   0.00375   295.010   1137.797   2.085   268.000   10.720   10.720   0.000   0.000
0.04625   0.00375   295.976   1137.797   2.085   268.000   10.720   10.720   0.000   0.000
0.04875   0.00375   297.282   1137.797   2.085   268.000   10.720   0.000   0.000   16.284
0.00125   0.00325   293.000   1137.797   268.000   268.000   0.000   10.720   0.000   0.000
0.00375   0.00325   293.000   1137.797   268.000   268.000   10.720   10.720   0.000   0.000
0.00625   0.00325   293.000   1137.797   268.000   268.000   10.720   10.720   0.000   0.000
0.00875   0.00325   293.000   1137.797   268.000   268.000   10.720   10.720   0.000   0.000
0.01125   0.00325   293.000   1137.797   268.000   268.000   10.720   10.720   0.000   0.000
0.01375   0.00325   293.001   1137.797   268.000   268.000   10.720   10.720   0.000   0.000
0.01625   0.00325   293.002   1137.797   268.000   268.000   10.720   10.720   0.000   0.000
0.01875   0.00325   293.005   1137.797   268.000   268.000   10.720   10.720   0.000   0.000
0.02125   0.00325   293.010   1137.797   268.000   268.000   10.720   10.720   0.000   0.000
0.02375   0.00325   293.021   1137.797   268.000   268.000   10.720   10.720   0.000   0.000
0.02625   0.00325   293.044   1137.797   268.000   268.000   10.720   10.720   0.000   0.000
0.02875   0.00325   293.086   1137.797   268.000   268.000   10.720   10.720   0.000   0.000
0.03125   0.00325   293.160   1137.797   268.000   268.000   10.720   10.720   0.000   0.000
0.03375   0.00325   293.288   1137.797   268.000   268.000   10.720   10.720   0.000   0.000
0.03625   0.00325   293.497   1137.797   268.000   268.000   10.720   10.720   0.000   0.000
0.03875   0.00325   293.824   1137.797   268.000   268.000   10.720   10.720   0.000   0.000
0.04125   0.00325   294.314   1137.797   268.000   268.000   10.720   10.720   0.000   0.000
0.04375   0.00325   295.016   1137.797   268.000   268.000   10.720   10.720   0.000   0.000
0.04625   0.00325   295.983   1137.797   268.000   268.000   10.720   10.720   0.000   0.000
0.04875   0.00325   297.271   1137.797   268.000   268.000   10.720   0.000   0.000   16.284
0.00125   0.00275   293.000   1137.797   268.000   268.000   0.000   10.720   0.000   0.000
0.00375   0.00275   293.000   1137.797   268.000   268.000   10.720   10.720   0.000   0.000
0.00625   0.00275   293.000   1137.797   268.000   268.000   10.720   10.720   0.000   0.000
0.00875   0.00275   293.000   1137.797   268.000   268.000   10.720   10.720   0.000   0.000
0.01125   0.00275   293.000   1137.797   268.000   268.000   10.720   10.720   0.000   0.000
0.01375   0.00275   293.001   1137.797   268.000   268.000   10.720   10.720   0.000   0.000
0.01625   0.00275   293.002   1137.797   268.000   268.000   10.720   10.720   0.000   0.000
0.01875   0.00275   293.005   1137.797   268.000   268.000   10.720   10.720   0.000   0.000
0.02125   0.00275   293.010   1137.797   268.000   268.000   10.720   10.720   0.000   0.000
0.02375   0.00275   293.022   1137.797   268.000   268.000   10.720   10.720   0.000   0.000
0.02625   0.00275   293.044   1137.797   268.000   268.000   10.720   10.720   0.000   0.000
0.02875   0.00275   293.086   1137.797   268.000   268.000   10.720   10.720   0.000   0.000
0.03125   0.00275   293.161   1137.797   268.000   268.000   10.720   10.720   0.000   0.000
0.03375   0.00275   293.289   1137.797   268.000   268.000   10.720   10.720   0.000   0.000
0.03625   0.00275   293.498   1137.797   268.000   268.000   10.720   10.720   0.000   0.000
0.03875   0.00275   293.826   1137.797   268.000   268.000   10.720   10.720   0.000   0.000
0.04125   0.00275   294.317   1137.797   268.000   268.000   10.720   10.720   0.000   0.000
0.04375   0.00275   295.021   1137.797   268.000   268.000   10.720   10.720   0.000   0.000
0.04625   0.00275   295.987   1137.797   268.000   268.000   10.720   10.720   0.000   0.000
0.04875   0.00275   297.262   1137.797   268.000   268.000   10.720   0.000   0.000   16.284
0.00125   0.00225   293.000   1137.797   268.000   268.000   0.000   10.720   0.000   0.000
0.00375   0.00225   293.000   1137.797   268.000   268.000   10.720   10.720   0.000   0.000
0.00625   0.00225   293.000   1137.797   268.000   268.000   10.720   10.720   0.000   0.000
0.00875   0.00225   293.000   1137.797   268.000   268.000   10.720   10.720   0.000   0.000
0.01125   0.00225   293.000   1137.797   268.000   268.000   10.720   10.720   0.000   0.000
0.01375   0.00225   293.001   1137.797   268.000   268.000   10.720   10.720   0.000   0.000
0.01625   0.00225   293.002   1137.797   268.000   268.000   10.720   10.720   0.000   0.000
0.01875   0.00225   293.005   1137.797   268.000   268.000   10.720   10.720   0.000   0.000
0.02125   0.00225   293.010   1137.797   268.000   268.000   10.720   10.720   0.000   0.000
0.02375   0.00225   293.022   1137.797   268.000   268.000   10.720   10.720   0.000   0.000
0.02625   0.00225   293.044   1137.797   268.000   268.000   10.720   10.720   0.000   0.000
0.02875   0.00225   293.086   1137.797   268.000   268.000   10.720   10.720   0.000   0.000
0.03125   0.00225   293.161   1137.797   268.000   268.000   10.720   10.720   0.000   0.000
0.03375   0.00225   293.289   1137.797   268.000   268.000   10.720   10.720   0.000   0.000
0.03625   0.00225   293.500   1137.797   268.000   268.000   10.720   10.720   0.000   0.000
0.03875   0.00225   293.828   1137.797   268.000   268.000   10.720   10.720   0.000   0.000
0.04125   0.00225   294.320   1137.797   268.000   268.000   10.720   10.720   0.000   0.000
0.04375   0.00225   295.024   1137.797   268.000   268.000   10.720   10.720   0.000   0.000
0.04625   0.00225   295.990   1137.797   268.000   268.000   10.720   10.720   0.000   0.000
0.04875   0.00225   297.256   1137.797   268.000   268.000   10.720   0.000   0.000   16.284
0.00125   0.00175   293.000   1137.797   268.000   268.000   0.000   10.720   0.000   0.000
0.00375   0.00175   293.000   1137.797   268.000   268.000   10.720   10.720   0.000   0.000
0.00625   0.00175   293.000   1137.797   268.000   268.000   10.720   10.720   0.000   0.000
0.00875   0.00175   293.000   1137.797   268.000   268.000   10.720   10.720   0.000   0.000
0.01125   0.00175   293.000   1137.797   268.000   268.000   10.720   10.720   0.000   0.000
0.01375   0.00175   293.001   1137.797   268.000   268.000   10.720   10.720   0.000   0.000
0.01625   0.00175   293.002   1137.797   268.000   268.000   10.720   10.720   0.000   0.000
0.01875   0.00175   293.005   1137.797   268.000   268.000   10.720   10.720   0.000   0.000
0.02125   0.00175   293.010   1137.797   268.000   268.000   10.720   10.720   0.000   0.000