VARIABLES = X, Y, T, ap,an,as,aw,ae,sp,su
ZONE I=20,J=20, F=POINT,t="11.156"
0.00125   0.00975   293.653   1137.797   0.000   268.000   0.000   10.720   0.000   -0.000
0.00375   0.00975   293.739   1137.797   0.000   268.000   10.720   10.720   0.000   -0.001
0.00625   0.00975   293.918   1137.797   0.000   268.000   10.720   10.720   0.000   -0.001
0.00875   0.00975   294.202   1137.797   0.000   268.000   10.720   10.720   0.000   -0.001
0.01125   0.00975   294.611   1137.797   0.000   268.000   10.720   10.720   0.000   -0.001
0.01375   0.00975   295.173   1137.797   0.000   268.000   10.720   10.720   0.000   -0.002
0.01625   0.00975   295.921   1137.797   0.000   268.000   10.720   10.720   0.000   -0.002
0.01875   0.00975   296.896   1137.797   0.000   268.000   10.720   10.720   0.000   -0.003
0.02125   0.00975   298.145   1137.797   0.000   268.000   10.720   10.720   0.000   -0.004
0.02375   0.00975   299.725   1137.797   0.000   268.000   10.720   10.720   0.000   -0.005
0.02625   0.00975   301.702   1137.797   0.000   268.000   10.720   10.720   0.000   -0.007
0.02875   0.00975   304.188   1137.797   0.000   268.000   10.720   10.720   0.000   -0.008
0.03125   0.00975   307.632   1137.797   0.000   268.000   10.720   10.720   0.000   81.277
0.03375   0.00975   310.283   1137.797   0.000   268.000   10.720   10.720   0.000   81.240
0.03625   0.00975   312.591   1137.797   0.000   268.000   10.720   10.720   0.000   81.206
0.03875   0.00975   314.666   1137.797   0.000   268.000   10.720   10.720   0.000   81.176
0.04125   0.00975   316.575   1137.797   0.000   268.000   10.720   10.720   0.000   81.147
0.04375   0.00975   318.367   1137.797   0.000   268.000   10.720   10.720   0.000   81.120
0.04625   0.00975   320.078   1137.797   0.000   268.000   10.720   10.720   0.000   81.093
0.04875   0.00975   321.714   1137.797   0.000   268.000   10.720   0.000   0.000   97.285
0.00125   0.00925   293.653   1137.797   268.000   268.000   0.000   10.720   0.000   0.000
0.00375   0.00925   293.739   1137.797   268.000   268.000   10.720   10.720   0.000   0.000
0.00625   0.00925   293.917   1137.797   268.000   268.000   10.720   10.720   0.000   0.000
0.00875   0.00925   294.201   1137.797   268.000   268.000   10.720   10.720   0.000   0.000
0.01125   0.00925   294.611   1137.797   268.000   268.000   10.720   10.720   0.000   0.000
0.01375   0.00925   295.172   1137.797   268.000   268.000   10.720   10.720   0.000   0.000
0.01625   0.00925   295.920   1137.797   268.000   268.000   10.720   10.720   0.000   0.000
0.01875   0.00925   296.895   1137.797   268.000   268.000   10.720   10.720   0.000   0.000
0.02125   0.00925   298.144   1137.797   268.000   268.000   10.720   10.720   0.000   0.000
0.02375   0.00925   299.723   1137.797   268.000   268.000   10.720   10.720   0.000   0.000
0.02625   0.00925   301.697   1137.797   268.000   268.000   10.720   10.720   0.000   0.000
0.02875   0.00925   304.168   1137.797   268.000   268.000   10.720   10.720   0.000   0.000
0.03125   0.00925   307.380   1137.797   268.000   268.000   10.720   10.720   0.000   0.000
0.03375   0.00925   310.016   1137.797   268.000   268.000   10.720   10.720   0.000   0.000
0.03625   0.00925   312.322   1137.797   268.000   268.000   10.720   10.720   0.000   0.000
0.03875   0.00925   314.396   1137.797   268.000   268.000   10.720   10.720   0.000   0.000
0.04125   0.00925   316.305   1137.797   268.000   268.000   10.720   10.720   0.000   0.000
0.04375   0.00925   318.097   1137.797   268.000   268.000   10.720   10.720   0.000   0.000
0.04625   0.00925   319.809   1137.797   268.000   268.000   10.720   10.720   0.000   0.000
0.04875   0.00925   321.447   1137.797   268.000   268.000   10.720   0.000   0.000   16.219
0.00125   0.00875   293.653   1137.797   268.000   268.000   0.000   10.720   0.000   0.000
0.00375   0.00875   293.738   1137.797   268.000   268.000   10.720   10.720   0.000   0.000
0.00625   0.00875   293.917   1137.797   268.000   268.000   10.720   10.720   0.000   0.000
0.00875   0.00875   294.200   1137.797   268.000   268.000   10.720   10.720   0.000   0.000
0.01125   0.00875   294.609   1137.797   268.000   268.000   10.720   10.720   0.000   0.000
0.01375   0.00875   295.171   1137.797   268.000   268.000   10.720   10.720   0.000   0.000
0.01625   0.00875   295.918   1137.797   268.000   268.000   10.720   10.720   0.000   0.000
0.01875   0.00875   296.892   1137.797   268.000   268.000   10.720   10.720   0.000   0.000
0.02125   0.00875   298.141   1137.797   268.000   268.000   10.720   10.720   0.000   0.000
0.02375   0.00875   299.718   1137.797   268.000   268.000   10.720   10.720   0.000   0.000
0.02625   0.00875   301.688   1137.797   268.000   268.000   10.720   10.720   0.000   0.000
0.02875   0.00875   304.136   1137.797   268.000   268.000   10.720   10.720   0.000   0.000
0.03125   0.00875   307.172   1137.797   268.000   268.000   10.720   10.720   0.000   0.000
0.03375   0.00875   309.785   1137.797   268.000   268.000   10.720   10.720   0.000   0.000
0.03625   0.00875   312.086   1137.797   268.000   268.000   10.720   10.720   0.000   0.000
0.03875   0.00875   314.159   1137.797   268.000   268.000   10.720   10.720   0.000   0.000
0.04125   0.00875   316.067   1137.797   268.000   268.000   10.720   10.720   0.000   0.000
0.04375   0.00875   317.859   1137.797   268.000   268.000   10.720   10.720   0.000   0.000
0.04625   0.00875   319.572   1137.797   268.000   268.000   10.720   10.720   0.000   0.000
0.04875   0.00875   321.215   1137.797   268.000   268.000   10.720   0.000   0.000   16.219
0.00125   0.00825   293.652   1137.797   268.000   268.000   0.000   10.720   0.000   0.000
0.00375   0.00825   293.738   1137.797   268.000   268.000   10.720   10.720   0.000   0.000
0.00625   0.00825   293.916   1137.797   268.000   268.000   10.720   10.720   0.000   0.000
0.00875   0.00825   294.199   1137.797   268.000   268.000   10.720   10.720   0.000   0.000
0.01125   0.00825   294.608   1137.797   268.000   268.000   10.720   10.720   0.000   0.000
0.01375   0.00825   295.169   1137.797   268.000   268.000   10.720   10.720   0.000   0.000
0.01625   0.00825   295.915   1137.797   268.000   268.000   10.720   10.720   0.000   0.000
0.01875   0.00825   296.889   1137.797   268.000   268.000   10.720   10.720   0.000   0.000
0.02125   0.00825   298.136   1137.797   268.000   268.000   10.720   10.720   0.000   0.000
0.02375   0.00825   299.711   1137.797   268.000   268.000   10.720   10.720   0.000   0.000
0.02625   0.00825   301.676   1137.797   268.000   268.000   10.720   10.720   0.000   0.000
0.02875   0.00825   304.098   1137.797   268.000   268.000   10.720   10.720   0.000   0.000
0.03125   0.00825   307.001   1137.797   268.000   268.000   10.720   10.720   0.000   0.000
0.03375   0.00825   309.588   1137.797   268.000   268.000   10.720   10.720   0.000   0.000
0.03625   0.00825   311.884   1137.797   268.000   268.000   10.720   10.720   0.000   0.000
0.03875   0.00825   313.955   1137.797   268.000   268.000   10.720   10.720   0.000   0.000
0.04125   0.00825   315.862   1137.797   268.000   268.000   10.720   10.720   0.000   0.000
0.04375   0.00825   317.654   1137.797   268.000   268.000   10.720   10.720   0.000   0.000
0.04625   0.00825   319.369   1137.797   268.000   268.000   10.720   10.720   0.000   0.000
0.04875   0.00825   321.020   1137.797   268.000   268.000   10.720   0.000   0.000   16.220
0.00125   0.00775   293.651   1137.797   268.000   268.000   0.000   10.720   0.000   0.000
0.00375   0.00775   293.736   1137.797   268.000   268.000   10.720   10.720   0.000   0.000
0.00625   0.00775   293.914   1137.797   268.000   268.000   10.720   10.720   0.000   0.000
0.00875   0.00775   294.197   1137.797   268.000   268.000   10.720   10.720   0.000   0.000
0.01125   0.00775   294.605   1137.797   268.000   268.000   10.720   10.720   0.000   0.000
0.01375   0.00775   295.166   1137.797   268.000   268.000   10.720   10.720   0.000   0.000
0.01625   0.00775   295.911   1137.797   268.000   268.000   10.720   10.720   0.000   0.000
0.01875   0.00775   296.884   1137.797   268.000   268.000   10.720   10.720   0.000   0.000
0.02125   0.00775   298.129   1137.797   268.000   268.000   10.720   10.720   0.000   0.000
0.02375   0.00775   299.703   1137.797   268.000   268.000   10.720   10.720   0.000   0.000
0.02625   0.00775   301.662   1137.797   268.000   268.000   10.720   10.720   0.000   0.000
0.02875   0.00775   304.059   1137.797   268.000   268.000   10.720   10.720   0.000   0.000
0.03125   0.00775   306.863   1137.797   268.000   268.000   10.720   10.720   0.000   0.000
0.03375   0.00775   309.425   1137.797   268.000   268.000   10.720   10.720   0.000   0.000
0.03625   0.00775   311.715   1137.797   268.000   268.000   10.720   10.720   0.000   0.000
0.03875   0.00775   313.784   1137.797   268.000   268.000   10.720   10.720   0.000   0.000
0.04125   0.00775   315.689   1137.797   268.000   268.000   10.720   10.720   0.000   0.000
0.04375   0.00775   317.481   1137.797   268.000   268.000   10.720   10.720   0.000   0.000
0.04625   0.00775   319.198   1137.797   268.000   268.000   10.720   10.720   0.000   0.000
0.04875   0.00775   320.860   1137.797   268.000   268.000   10.720   0.000   0.000   16.220
0.00125   0.00725   293.649   1137.797   268.000   268.000   0.000   10.720   0.000   0.000
0.00375   0.00725   293.735   1137.797   268.000   268.000   10.720   10.720   0.000   0.000
0.00625   0.00725   293.912   1137.797   268.000   268.000   10.720   10.720   0.000   0.000
0.00875   0.00725   294.195   1137.797   268.000   268.000   10.720   10.720   0.000   0.000
0.01125   0.00725   294.603   1137.797   268.000   268.000   10.720   10.720   0.000   0.000
0.01375   0.00725   295.162   1137.797   268.000   268.000   10.720   10.720   0.000   0.000
0.01625   0.00725   295.907   1137.797   268.000   268.000   10.720   10.720   0.000   0.000
0.01875   0.00725   296.877   1137.797   268.000   268.000   10.720   10.720   0.000   0.000
0.02125   0.00725   298.121   1137.797   268.000   268.000   10.720   10.720   0.000   0.000
0.02375   0.00725   299.692   1137.797   268.000   268.000   10.720   10.720   0.000   0.000
0.02625   0.00725   301.645   1137.797   268.000   268.000   10.720   10.720   0.000   0.000
0.02875   0.00725   304.021   1137.797   268.000   268.000   10.720   10.720   0.000   0.000
0.03125   0.00725   306.754   1137.797   268.000   268.000   10.720   10.720   0.000   0.000
0.03375   0.00725   309.296   1137.797   268.000   268.000   10.720   10.720   0.000   0.000
0.03625   0.00725   311.579   1137.797   268.000   268.000   10.720   10.720   0.000   0.000
0.03875   0.00725   313.646   1137.797   268.000   268.000   10.720   10.720   0.000   0.000
0.04125   0.00725   315.549   1137.797   268.000   268.000   10.720   10.720   0.000   0.000
0.04375   0.00725   317.340   1137.797   268.000   268.000   10.720   10.720   0.000   0.000
0.04625   0.00725   319.060   1137.797   268.000   268.000   10.720   10.720   0.000   0.000
0.04875   0.00725   320.737   1137.797   268.000   268.000   10.720   0.000   0.000   16.221
0.00125   0.00675   293.648   1137.797   268.000   268.000   0.000   10.720   0.000   0.000
0.00375   0.00675   293.733   1137.797   268.000   268.000   10.720   10.720   0.000   0.000
0.00625   0.00675   293.910   1137.797   268.000   268.000   10.720   10.720   0.000   0.000
0.00875   0.00675   294.192   1137.797   268.000   268.000   10.720   10.720   0.000   0.000
0.01125   0.00675   294.599   1137.797   268.000   268.000   10.720   10.720   0.000   0.000
0.01375   0.00675   295.157   1137.797   268.000   268.000   10.720   10.720   0.000   0.000
0.01625   0.00675   295.901   1137.797   268.000   268.000   10.720   10.720   0.000   0.000
0.01875   0.00675   296.870   1137.797   268.000   268.000   10.720   10.720   0.000   0.000
0.02125   0.00675   298.112   1137.797   268.000   268.000   10.720   10.720   0.000   0.000
0.02375   0.00675   299.680   1137.797   268.000   268.000   10.720   10.720   0.000   0.000
0.02625   0.00675   301.627   1137.797   268.000   268.000   10.720   10.720   0.000   0.000
0.02875   0.00675   303.988   1137.797   268.000   268.000   10.720   10.720   0.000   0.000
0.03125   0.00675   306.674   1137.797   268.000   268.000   10.720   10.720   0.000   0.000
0.03375   0.00675   309.199   1137.797   268.000   268.000   10.720   10.720   0.000   0.000
0.03625   0.00675   311.477   1137.797   268.000   268.000   10.720   10.720   0.000   0.000
0.03875   0.00675   313.540   1137.797   268.000   268.000   10.720   10.720   0.000   0.000
0.04125   0.00675   315.441   1137.797   268.000   268.000   10.720   10.720   0.000   0.000
0.04375   0.00675   317.231   1137.797   268.000   268.000   10.720   10.720   0.000   0.000
0.04625   0.00675   318.953   1137.797   268.000   268.000   10.720   10.720   0.000   0.000
0.04875   0.00675   320.652   1137.797   268.000   268.000   10.720   0.000   0.000   16.221
0.00125   0.00625   293.646   1137.797   268.000   2.085   0.000   10.720   0.000   0.000
0.00375   0.00625   293.731   1137.797   268.000   2.085   10.720   10.720   0.000   0.000
0.00625   0.00625   293.908   1137.797   268.000   2.085   10.720   10.720   0.000   0.000
0.00875   0.00625   294.189   1137.797   268.000   2.085   10.720   10.720   0.000   0.000
0.01125   0.00625   294.595   1137.797   268.000   2.085   10.720   10.720   0.000   0.000
0.01375   0.00625   295.152   1137.797   268.000   2.085   10.720   10.720   0.000   0.000
0.01625   0.00625   295.894   1137.797   268.000   2.085   10.720   10.720   0.000   0.000
0.01875   0.00625   296.861   1137.797   268.000   2.085   10.720   10.720   0.000   0.000
0.02125   0.00625   298.101   1137.797   268.000   2.085   10.720   10.720   0.000   0.000
0.02375   0.00625   299.666   1137.797   268.000   2.085   10.720   10.720   0.000   0.000
0.02625   0.00625   301.609   1137.797   268.000   2.085   10.720   10.720   0.000   0.000
0.02875   0.00625   303.959   1137.797   268.000   2.085   10.720   10.720   0.000   0.000
0.03125   0.00625   306.619   1137.797   268.000   2.085   10.720   10.720   0.000   0.000
0.03375   0.00625   309.135   1137.797   268.000   2.085   10.720   10.720   0.000   0.000
0.03625   0.00625   311.408   1137.797   268.000   2.085   10.720   10.720   0.000   0.000
0.03875   0.00625   313.468   1137.797   268.000   2.085   10.720   10.720   0.000   0.000
0.04125   0.00625   315.366   1137.797   268.000   2.085   10.720   10.720   0.000   0.000
0.04375   0.00625   317.154   1137.797   268.000   2.085   10.720   10.720   0.000   0.000
0.04625   0.00625   318.877   1137.797   268.000   2.085   10.720   10.720   0.000   0.000
0.04875   0.00625   320.604   1137.797   268.000   2.085   10.720   0.000   0.000   16.221
0.00125   0.00575   293.372   686.719   2.085   1.046   0.000   0.042   0.000   0.000
0.00375   0.00575   293.427   686.719   2.085   1.046   0.042   0.042   0.000   0.000
0.00625   0.00575   293.543   686.719   2.085   1.046   0.042   0.042   0.000   0.000
0.00875   0.00575   293.730   686.719   2.085   1.046   0.042   0.042   0.000   0.000
0.01125   0.00575   294.004   686.719   2.085   1.046   0.042   0.042   0.000   0.000
0.01375   0.00575   294.387   686.719   2.085   1.046   0.042   0.042   0.000   0.000
0.01625   0.00575   294.906   686.719   2.085   1.046   0.042   0.042   0.000   0.000
0.01875   0.00575   295.596   686.719   2.085   1.046   0.042   0.042   0.000   0.000
0.02125   0.00575   296.498   686.719   2.085   1.046   0.042   0.042   0.000   0.000
0.02375   0.00575   297.659   686.719   2.085   1.046   0.042   0.042   0.000   0.000
0.02625   0.00575   299.127   686.719   2.085   1.046   0.042   0.042   0.000   0.000
0.02875   0.00575   300.930   686.719   2.085   1.046   0.042   0.042   0.000   0.000
0.03125   0.00575   302.991   686.719   2.085   1.046   0.042   0.042   0.000   0.000
0.03375   0.00575   304.942   686.719   2.085   1.046   0.042   0.042   0.000   0.000
0.03625   0.00575   306.708   686.719   2.085   1.046   0.042   0.042   0.000   0.000
0.03875   0.00575   308.322   686.719   2.085   1.046   0.042   0.042   0.000   0.000
0.04125   0.00575   309.839   686.719   2.085   1.046   0.042   0.042   0.000   0.000
0.04375   0.00575   311.320   686.719   2.085   1.046   0.042   0.042   0.000   0.000
0.04625   0.00575   313.015   686.719   2.085   1.046   0.042   0.042   0.000   0.000
0.04875   0.00575   319.497   686.719   2.085   1.046   0.042   0.000   0.000   6.084
0.00125   0.00525   293.141   686.719   1.046   1.046   0.000   0.042   0.000   0.000
0.00375   0.00525   293.166   686.719   1.046   1.046   0.042   0.042   0.000   0.000
0.00625   0.00525   293.219   686.719   1.046   1.046   0.042   0.042   0.000   0.000
0.00875   0.00525   293.305   686.719   1.046   1.046   0.042   0.042   0.000   0.000
0.01125   0.00525   293.435   686.719   1.046   1.046   0.042   0.042   0.000   0.000
0.01375   0.00525   293.622   686.719   1.046   1.046   0.042   0.042   0.000   0.000
0.01625   0.00525   293.884   686.719   1.046   1.046   0.042   0.042   0.000   0.000
0.01875   0.00525   294.243   686.719   1.046   1.046   0.042   0.042   0.000   0.000
0.02125   0.00525   294.727   686.719   1.046   1.046   0.042   0.042   0.000   0.000
0.02375   0.00525   295.371   686.719   1.046   1.046   0.042   0.042   0.000   0.000
0.02625   0.00525   296.210   686.719   1.046   1.046   0.042   0.042   0.000   0.000
0.02875   0.00525   297.270   686.719   1.046   1.046   0.042   0.042   0.000   0.000
0.03125   0.00525   298.503   686.719   1.046   1.046   0.042   0.042   0.000   0.000
0.03375   0.00525   299.686   686.719   1.046   1.046   0.042   0.042   0.000   0.000
0.03625   0.00525   300.780   686.719   1.046   1.046   0.042   0.042   0.000   0.000
0.03875   0.00525   301.817   686.719   1.046   1.046   0.042   0.042   0.000   0.000
0.04125   0.00525   302.850   686.719   1.046   1.046   0.042   0.042   0.000   0.000
0.04375   0.00525   303.948   686.719   1.046   1.046   0.042   0.042   0.000   0.000
0.04625   0.00525   305.612   686.719   1.046   1.046   0.042   0.042   0.000   0.000
0.04875   0.00525   316.494   686.719   1.046   1.046   0.042   0.000   0.000   6.087
0.00125   0.00475   293.053   686.719   1.046   1.046   0.000   0.042   0.000   0.000
0.00375   0.00475   293.064   686.719   1.046   1.046   0.042   0.042   0.000   0.000
0.00625   0.00475   293.088   686.719   1.046   1.046   0.042   0.042   0.000   0.000
0.00875   0.00475   293.127   686.719   1.046   1.046   0.042   0.042   0.000   0.000
0.01125   0.00475   293.189   686.719   1.046   1.046   0.042   0.042   0.000   0.000
0.01375   0.00475   293.279   686.719   1.046   1.046   0.042   0.042   0.000   0.000
0.01625   0.00475   293.409   686.719   1.046   1.046   0.042   0.042   0.000   0.000
0.01875   0.00475   293.593   686.719   1.046   1.046   0.042   0.042   0.000   0.000
0.02125   0.00475   293.849   686.719   1.046   1.046   0.042   0.042   0.000   0.000
0.02375   0.00475   294.199   686.719   1.046   1.046   0.042   0.042   0.000   0.000
0.02625   0.00475   294.668   686.719   1.046   1.046   0.042   0.042   0.000   0.000
0.02875   0.00475   295.276   686.719   1.046   1.046   0.042   0.042   0.000   0.000
0.03125   0.00475   296.004   686.719   1.046   1.046   0.042   0.042   0.000   0.000
0.03375   0.00475   296.739   686.719   1.046   1.046   0.042   0.042   0.000   0.000
0.03625   0.00475   297.469   686.719   1.046   1.046   0.042   0.042   0.000   0.000
0.03875   0.00475   298.225   686.719   1.046   1.046   0.042   0.042   0.000   0.000
0.04125   0.00475   299.046   686.719   1.046   1.046   0.042   0.042   0.000   0.000
0.04375   0.00475   299.996   686.719   1.046   1.046   0.042   0.042   0.000   0.000
0.04625   0.00475   301.565   686.719   1.046   1.046   0.042   0.042   0.000   0.000
0.04875   0.00475   312.404   686.719   1.046   1.046   0.042   0.000   0.000   6.092
0.00125   0.00425   293.029   686.719   1.046   2.085   0.000   0.042   0.000   0.000
0.00375   0.00425   293.036   686.719   1.046   2.085   0.042   0.042   0.000   0.000
0.00625   0.00425   293.050   686.719   1.046   2.085   0.042   0.042   0.000   0.000
0.00875   0.00425   293.073   686.719   1.046   2.085   0.042   0.042   0.000   0.000
0.01125   0.00425   293.109   686.719   1.046   2.085   0.042   0.042   0.000   0.000
0.01375   0.00425   293.163   686.719   1.046   2.085   0.042   0.042   0.000   0.000
0.01625   0.00425   293.242   686.719   1.046   2.085   0.042   0.042   0.000   0.000
0.01875   0.00425   293.353   686.719   1.046   2.085   0.042   0.042   0.000   0.000
0.02125   0.00425   293.508   686.719   1.046   2.085   0.042   0.042   0.000   0.000
0.02375   0.00425   293.721   686.719   1.046   2.085   0.042   0.042   0.000   0.000
0.02625   0.00425   294.007   686.719   1.046   2.085   0.042   0.042   0.000   0.000
0.02875   0.00425   294.382   686.719   1.046   2.085   0.042   0.042   0.000   0.000
0.03125   0.00425   294.849   686.719   1.046   2.085   0.042   0.042   0.000   0.000
0.03375   0.00425   295.385   686.719   1.046   2.085   0.042   0.042   0.000   0.000
0.03625   0.00425   295.996   686.719   1.046   2.085   0.042   0.042   0.000   0.000
0.03875   0.00425   296.705   686.719   1.046   2.085   0.042   0.042   0.000   0.000
0.04125   0.00425   297.540   686.719   1.046   2.085   0.042   0.042   0.000   0.000
0.04375   0.00425   298.536   686.719   1.046   2.085   0.042   0.042   0.000   0.000
0.04625   0.00425   299.920   686.719   1.046   2.085   0.042   0.042   0.000   0.000
0.04875   0.00425   306.257   686.719   1.046   2.085   0.042   0.000   0.000   6.098
0.00125   0.00375   293.036   1137.797   2.085   268.000   0.000   10.720   0.000   0.000
0.00375   0.00375   293.044   1137.797   2.085   268.000   10.720   10.720   0.000   0.000
0.00625   0.00375   293.059   1137.797   2.085   268.000   10.720   10.720   0.000   0.000
0.00875   0.00375   293.084   1137.797   2.085   268.000   10.720   10.720   0.000   0.000
0.01125   0.00375   293.122   1137.797   2.085   268.000   10.720   10.720   0.000   0.000
0.01375   0.00375   293.177   1137.797   2.085   268.000   10.720   10.720   0.000   0.000
0.01625   0.00375   293.255   1137.797   2.085   268.000   10.720   10.720   0.000   0.000
0.01875   0.00375   293.363   1137.797   2.085   268.000   10.720   10.720   0.000   0.000
0.02125   0.00375   293.508   1137.797   2.085   268.000   10.720   10.720   0.000   0.000
0.02375   0.00375   293.702   1137.797   2.085   268.000   10.720   10.720   0.000   0.000
0.02625   0.00375   293.956   1137.797   2.085   268.000   10.720   10.720   0.000   0.000
0.02875   0.00375   294.283   1137.797   2.085   268.000   10.720   10.720   0.000   0.000
0.03125   0.00375   294.695   1137.797   2.085   268.000   10.720   10.720   0.000   0.000
0.03375   0.00375   295.208   1137.797   2.085   268.000   10.720   10.720   0.000   0.000
0.03625   0.00375   295.838   1137.797   2.085   268.000   10.720   10.720   0.000   0.000
0.03875   0.00375   296.600   1137.797   2.085   268.000   10.720   10.720   0.000   0.000
0.04125   0.00375   297.512   1137.797   2.085   268.000   10.720   10.720   0.000   0.000
0.04375   0.00375   298.592   1137.797   2.085   268.000   10.720   10.720   0.000   0.000
0.04625   0.00375   299.861   1137.797   2.085   268.000   10.720   10.720   0.000   0.000
0.04875   0.00375   301.367   1137.797   2.085   268.000   10.720   0.000   0.000   16.274
0.00125   0.00325   293.036   1137.797   268.000   268.000   0.000   10.720   0.000   0.000
0.00375   0.00325   293.044   1137.797   268.000   268.000   10.720   10.720   0.000   0.000
0.00625   0.00325   293.059   1137.797   268.000   268.000   10.720   10.720   0.000   0.000
0.00875   0.00325   293.084   1137.797   268.000   268.000   10.720   10.720   0.000   0.000
0.01125   0.00325   293.122   1137.797   268.000   268.000   10.720   10.720   0.000   0.000
0.01375   0.00325   293.177   1137.797   268.000   268.000   10.720   10.720   0.000   0.000
0.01625   0.00325   293.255   1137.797   268.000   268.000   10.720   10.720   0.000   0.000
0.01875   0.00325   293.363   1137.797   268.000   268.000   10.720   10.720   0.000   0.000
0.02125   0.00325   293.508   1137.797   268.000   268.000   10.720   10.720   0.000   0.000
0.02375   0.00325   293.702   1137.797   268.000   268.000   10.720   10.720   0.000   0.000
0.02625   0.00325   293.956   1137.797   268.000   268.000   10.720   10.720   0.000   0.000
0.02875   0.00325   294.282   1137.797   268.000   268.000   10.720   10.720   0.000   0.000
0.03125   0.00325   294.694   1137.797   268.000   268.000   10.720   10.720   0.000   0.000
0.03375   0.00325   295.207   1137.797   268.000   268.000   10.720   10.720   0.000   0.000
0.03625   0.00325   295.836   1137.797   268.000   268.000   10.720   10.720   0.000   0.000
0.03875   0.00325   296.599   1137.797   268.000   268.000   10.720   10.720   0.000   0.000
0.04125   0.00325   297.512   1137.797   268.000   268.000   10.720   10.720   0.000   0.000
0.04375   0.00325   298.592   1137.797   268.000   268.000   10.720   10.720   0.000   0.000
0.04625   0.00325   299.858   1137.797   268.000   268.000   10.720   10.720   0.000   0.000
0.04875   0.00325   301.336   1137.797   268.000   268.000   10.720   0.000   0.000   16.274
0.00125   0.00275   293.037   1137.797   268.000   268.000   0.000   10.720   0.000   0.000
0.00375   0.00275   293.044   1137.797   268.000   268.000   10.720   10.720   0.000   0.000
0.00625   0.00275   293.059   1137.797   268.000   268.000   10.720   10.720   0.000   0.000
0.00875   0.00275   293.084   1137.797   268.000   268.000   10.720   10.720   0.000   0.000
0.01125   0.00275   293.122   1137.797   268.000   268.000   10.720   10.720   0.000   0.000
0.01375   0.00275   293.178   1137.797   268.000   268.000   10.720   10.720   0.000   0.000
0.01625   0.00275   293.255   1137.797   268.000   268.000   10.720   10.720   0.000   0.000
0.01875   0.00275   293.363   1137.797   268.000   268.000   10.720   10.720   0.000   0.000
0.02125   0.00275   293.508   1137.797   268.000   268.000   10.720   10.720   0.000   0.000
0.02375   0.00275   293.702   1137.797   268.000   268.000   10.720   10.720   0.000   0.000
0.02625   0.00275   293.956   1137.797   268.000   268.000   10.720   10.720   0.000   0.000
0.02875   0.00275   294.281   1137.797   268.000   268.000   10.720   10.720   0.000   0.000
0.03125   0.00275   294.693   1137.797   268.000   268.000   10.720   10.720   0.000   0.000
0.03375   0.00275   295.206   1137.797   268.000   268.000   10.720   10.720   0.000   0.000
0.03625   0.00275   295.836   1137.797   268.000   268.000   10.720   10.720   0.000   0.000
0.03875   0.00275   296.599   1137.797   268.000   268.000   10.720   10.720   0.000   0.000
0.04125   0.00275   297.512   1137.797   268.000   268.000   10.720   10.720   0.000   0.000
0.04375   0.00275   298.592   1137.797   268.000   268.000   10.720   10.720   0.000   0.000
0.04625   0.00275   299.855   1137.797   268.000   268.000   10.720   10.720   0.000   0.000
0.04875   0.00275   301.311   1137.797   268.000   268.000   10.720   0.000   0.000   16.274
0.00125   0.00225   293.037   1137.797   268.000   268.000   0.000   10.720   0.000   0.000
0.00375   0.00225   293.044   1137.797   268.000   268.000   10.720   10.720   0.000   0.000
0.00625   0.00225   293.059   1137.797   268.000   268.000   10.720   10.720   0.000   0.000
0.00875   0.00225   293.084   1137.797   268.000   268.000   10.720   10.720   0.000   0.000
0.01125   0.00225   293.122   1137.797   268.000   268.000   10.720   10.720   0.000   0.000
0.01375   0.00225   293.178   1137.797   268.000   268.000   10.720   10.720   0.000   0.000
0.01625   0.00225   293.255   1137.797   268.000   268.000   10.720   10.720   0.000   0.000
0.01875   0.00225   293.363   1137.797   268.000   268.000   10.720   10.720   0.000   0.000
0.02125   0.00225   293.508   1137.797   268.000   268.000   10.720   10.720   0.000   0.000
0.02375   0.00225   293.702   1137.797   268.000   268.000   10.720   10.720   0.000   0.000
0.02625   0.00225   293.955   1137.797   268.000   268.000   10.720   10.720   0.000   0.000
0.02875   0.00225   294.281   1137.797   268.000   268.000   10.720   10.720   0.000   0.000
0.03125   0.00225   294.693   1137.797   268.000   268.000   10.720   10.720   0.000   0.000
0.03375   0.00225   295.205   1137.797   268.000   268.000   10.720   10.720   0.000   0.000
0.03625   0.00225   295.835   1137.797   268.000   268.000   10.720   10.720   0.000   0.000
0.03875   0.00225   296.598   1137.797   268.000   268.000   10.720   10.720   0.000   0.000
0.04125   0.00225   297.512   1137.797   268.000   268.000   10.720   10.720   0.000   0.000
0.04375   0.00225   298.591   1137.797   268.000   268.000   10.720   10.720   0.000   0.000
0.04625   0.00225   299.851   1137.797   268.000   268.000   10.720   10.720   0.000   0.000
0.04875   0.00225   301.292   1137.797   268.000   268.000   10.720   0.000   0.000   16.274
0.00125   0.00175   293.037   1137.797   268.000   268.000   0.000   10.720   0.000   0.000
0.00375   0.00175   293.044   1137.797   268.000   268.000   10.720   10.720   0.000   0.000
0.00625   0.00175   293.059   1137.797   268.000   268.000   10.720   10.720   0.000   0.000
0.00875   0.00175   293.084   1137.797   268.000   268.000   10.720   10.720   0.000   0.000
0.01125   0.00175   293.122   1137.797   268.000   268.000   10.720   10.720   0.000   0.000
0.01375   0.00175   293.178   1137.797   268.000   268.000   10.720   10.720   0.000   0.000
0.01625   0.00175   293.256   1137.797   268.000   268.000   10.720   10.720   0.000   0.000
0.01875   0.00175   293.363   1137.797   268.000   268.000   10.720   10.720   0.000   0.000
0.02125   0.00175   293.508   1137.797   268.000   268.000   10.720   10.720   0.000   0.000