VARIABLES = X, Y, T, ap,an,as,aw,ae,sp,su
ZONE I=20,J=20, F=POINT,t="2.288"
0.00125   0.00975   293.000   1137.797   0.000   268.000   0.000   10.720   0.000   -0.000
0.00375   0.00975   293.001   1137.797   0.000   268.000   10.720   10.720   0.000   -0.000
0.00625   0.00975   293.002   1137.797   0.000   268.000   10.720   10.720   0.000   -0.000
0.00875   0.00975   293.005   1137.797   0.000   268.000   10.720   10.720   0.000   -0.000
0.01125   0.00975   293.013   1137.797   0.000   268.000   10.720   10.720   0.000   -0.000
0.01375   0.00975   293.031   1137.797   0.000   268.000   10.720   10.720   0.000   -0.000
0.01625   0.00975   293.070   1137.797   0.000   268.000   10.720   10.720   0.000   -0.000
0.01875   0.00975   293.151   1137.797   0.000   268.000   10.720   10.720   0.000   -0.000
0.02125   0.00975   293.310   1137.797   0.000   268.000   10.720   10.720   0.000   -0.000
0.02375   0.00975   293.600   1137.797   0.000   268.000   10.720   10.720   0.000   -0.000
0.02625   0.00975   294.105   1137.797   0.000   268.000   10.720   10.720   0.000   -0.001
0.02875   0.00975   294.974   1137.797   0.000   268.000   10.720   10.720   0.000   -0.001
0.03125   0.00975   296.708   1137.797   0.000   268.000   10.720   10.720   0.000   81.422
0.03375   0.00975   297.617   1137.797   0.000   268.000   10.720   10.720   0.000   81.411
0.03625   0.00975   298.220   1137.797   0.000   268.000   10.720   10.720   0.000   81.403
0.03875   0.00975   298.700   1137.797   0.000   268.000   10.720   10.720   0.000   81.397
0.04125   0.00975   299.191   1137.797   0.000   268.000   10.720   10.720   0.000   81.391
0.04375   0.00975   299.816   1137.797   0.000   268.000   10.720   10.720   0.000   81.383
0.04625   0.00975   300.680   1137.797   0.000   268.000   10.720   10.720   0.000   81.371
0.04875   0.00975   301.861   1137.797   0.000   268.000   10.720   0.000   0.000   97.628
0.00125   0.00925   293.000   1137.797   268.000   268.000   0.000   10.720   0.000   0.000
0.00375   0.00925   293.001   1137.797   268.000   268.000   10.720   10.720   0.000   0.000
0.00625   0.00925   293.002   1137.797   268.000   268.000   10.720   10.720   0.000   0.000
0.00875   0.00925   293.005   1137.797   268.000   268.000   10.720   10.720   0.000   0.000
0.01125   0.00925   293.013   1137.797   268.000   268.000   10.720   10.720   0.000   0.000
0.01375   0.00925   293.031   1137.797   268.000   268.000   10.720   10.720   0.000   0.000
0.01625   0.00925   293.070   1137.797   268.000   268.000   10.720   10.720   0.000   0.000
0.01875   0.00925   293.151   1137.797   268.000   268.000   10.720   10.720   0.000   0.000
0.02125   0.00925   293.309   1137.797   268.000   268.000   10.720   10.720   0.000   0.000
0.02375   0.00925   293.599   1137.797   268.000   268.000   10.720   10.720   0.000   0.000
0.02625   0.00925   294.102   1137.797   268.000   268.000   10.720   10.720   0.000   0.000
0.02875   0.00925   294.956   1137.797   268.000   268.000   10.720   10.720   0.000   0.000
0.03125   0.00925   296.458   1137.797   268.000   268.000   10.720   10.720   0.000   0.000
0.03375   0.00925   297.352   1137.797   268.000   268.000   10.720   10.720   0.000   0.000
0.03625   0.00925   297.953   1137.797   268.000   268.000   10.720   10.720   0.000   0.000
0.03875   0.00925   298.432   1137.797   268.000   268.000   10.720   10.720   0.000   0.000
0.04125   0.00925   298.923   1137.797   268.000   268.000   10.720   10.720   0.000   0.000
0.04375   0.00925   299.547   1137.797   268.000   268.000   10.720   10.720   0.000   0.000
0.04625   0.00925   300.412   1137.797   268.000   268.000   10.720   10.720   0.000   0.000
0.04875   0.00925   301.594   1137.797   268.000   268.000   10.720   0.000   0.000   16.273
0.00125   0.00875   293.000   1137.797   268.000   268.000   0.000   10.720   0.000   0.000
0.00375   0.00875   293.001   1137.797   268.000   268.000   10.720   10.720   0.000   0.000
0.00625   0.00875   293.002   1137.797   268.000   268.000   10.720   10.720   0.000   0.000
0.00875   0.00875   293.005   1137.797   268.000   268.000   10.720   10.720   0.000   0.000
0.01125   0.00875   293.013   1137.797   268.000   268.000   10.720   10.720   0.000   0.000
0.01375   0.00875   293.031   1137.797   268.000   268.000   10.720   10.720   0.000   0.000
0.01625   0.00875   293.070   1137.797   268.000   268.000   10.720   10.720   0.000   0.000
0.01875   0.00875   293.151   1137.797   268.000   268.000   10.720   10.720   0.000   0.000
0.02125   0.00875   293.309   1137.797   268.000   268.000   10.720   10.720   0.000   0.000
0.02375   0.00875   293.598   1137.797   268.000   268.000   10.720   10.720   0.000   0.000
0.02625   0.00875   294.097   1137.797   268.000   268.000   10.720   10.720   0.000   0.000
0.02875   0.00875   294.928   1137.797   268.000   268.000   10.720   10.720   0.000   0.000
0.03125   0.00875   296.253   1137.797   268.000   268.000   10.720   10.720   0.000   0.000
0.03375   0.00875   297.124   1137.797   268.000   268.000   10.720   10.720   0.000   0.000
0.03625   0.00875   297.722   1137.797   268.000   268.000   10.720   10.720   0.000   0.000
0.03875   0.00875   298.199   1137.797   268.000   268.000   10.720   10.720   0.000   0.000
0.04125   0.00875   298.690   1137.797   268.000   268.000   10.720   10.720   0.000   0.000
0.04375   0.00875   299.314   1137.797   268.000   268.000   10.720   10.720   0.000   0.000
0.04625   0.00875   300.178   1137.797   268.000   268.000   10.720   10.720   0.000   0.000
0.04875   0.00875   301.362   1137.797   268.000   268.000   10.720   0.000   0.000   16.274
0.00125   0.00825   293.000   1137.797   268.000   268.000   0.000   10.720   0.000   0.000
0.00375   0.00825   293.001   1137.797   268.000   268.000   10.720   10.720   0.000   0.000
0.00625   0.00825   293.002   1137.797   268.000   268.000   10.720   10.720   0.000   0.000
0.00875   0.00825   293.005   1137.797   268.000   268.000   10.720   10.720   0.000   0.000
0.01125   0.00825   293.013   1137.797   268.000   268.000   10.720   10.720   0.000   0.000
0.01375   0.00825   293.030   1137.797   268.000   268.000   10.720   10.720   0.000   0.000
0.01625   0.00825   293.070   1137.797   268.000   268.000   10.720   10.720   0.000   0.000
0.01875   0.00825   293.151   1137.797   268.000   268.000   10.720   10.720   0.000   0.000
0.02125   0.00825   293.308   1137.797   268.000   268.000   10.720   10.720   0.000   0.000
0.02375   0.00825   293.596   1137.797   268.000   268.000   10.720   10.720   0.000   0.000
0.02625   0.00825   294.090   1137.797   268.000   268.000   10.720   10.720   0.000   0.000
0.02875   0.00825   294.896   1137.797   268.000   268.000   10.720   10.720   0.000   0.000
0.03125   0.00825   296.088   1137.797   268.000   268.000   10.720   10.720   0.000   0.000
0.03375   0.00825   296.934   1137.797   268.000   268.000   10.720   10.720   0.000   0.000
0.03625   0.00825   297.526   1137.797   268.000   268.000   10.720   10.720   0.000   0.000
0.03875   0.00825   298.002   1137.797   268.000   268.000   10.720   10.720   0.000   0.000
0.04125   0.00825   298.492   1137.797   268.000   268.000   10.720   10.720   0.000   0.000
0.04375   0.00825   299.115   1137.797   268.000   268.000   10.720   10.720   0.000   0.000
0.04625   0.00825   299.980   1137.797   268.000   268.000   10.720   10.720   0.000   0.000
0.04875   0.00825   301.167   1137.797   268.000   268.000   10.720   0.000   0.000   16.274
0.00125   0.00775   293.000   1137.797   268.000   268.000   0.000   10.720   0.000   0.000
0.00375   0.00775   293.001   1137.797   268.000   268.000   10.720   10.720   0.000   0.000
0.00625   0.00775   293.002   1137.797   268.000   268.000   10.720   10.720   0.000   0.000
0.00875   0.00775   293.005   1137.797   268.000   268.000   10.720   10.720   0.000   0.000
0.01125   0.00775   293.013   1137.797   268.000   268.000   10.720   10.720   0.000   0.000
0.01375   0.00775   293.030   1137.797   268.000   268.000   10.720   10.720   0.000   0.000
0.01625   0.00775   293.070   1137.797   268.000   268.000   10.720   10.720   0.000   0.000
0.01875   0.00775   293.150   1137.797   268.000   268.000   10.720   10.720   0.000   0.000
0.02125   0.00775   293.307   1137.797   268.000   268.000   10.720   10.720   0.000   0.000
0.02375   0.00775   293.593   1137.797   268.000   268.000   10.720   10.720   0.000   0.000
0.02625   0.00775   294.083   1137.797   268.000   268.000   10.720   10.720   0.000   0.000
0.02875   0.00775   294.864   1137.797   268.000   268.000   10.720   10.720   0.000   0.000
0.03125   0.00775   295.958   1137.797   268.000   268.000   10.720   10.720   0.000   0.000
0.03375   0.00775   296.780   1137.797   268.000   268.000   10.720   10.720   0.000   0.000
0.03625   0.00775   297.367   1137.797   268.000   268.000   10.720   10.720   0.000   0.000
0.03875   0.00775   297.841   1137.797   268.000   268.000   10.720   10.720   0.000   0.000
0.04125   0.00775   298.329   1137.797   268.000   268.000   10.720   10.720   0.000   0.000
0.04375   0.00775   298.951   1137.797   268.000   268.000   10.720   10.720   0.000   0.000
0.04625   0.00775   299.816   1137.797   268.000   268.000   10.720   10.720   0.000   0.000
0.04875   0.00775   301.009   1137.797   268.000   268.000   10.720   0.000   0.000   16.275
0.00125   0.00725   293.000   1137.797   268.000   268.000   0.000   10.720   0.000   0.000
0.00375   0.00725   293.001   1137.797   268.000   268.000   10.720   10.720   0.000   0.000
0.00625   0.00725   293.002   1137.797   268.000   268.000   10.720   10.720   0.000   0.000
0.00875   0.00725   293.005   1137.797   268.000   268.000   10.720   10.720   0.000   0.000
0.01125   0.00725   293.012   1137.797   268.000   268.000   10.720   10.720   0.000   0.000
0.01375   0.00725   293.030   1137.797   268.000   268.000   10.720   10.720   0.000   0.000
0.01625   0.00725   293.069   1137.797   268.000   268.000   10.720   10.720   0.000   0.000
0.01875   0.00725   293.150   1137.797   268.000   268.000   10.720   10.720   0.000   0.000
0.02125   0.00725   293.306   1137.797   268.000   268.000   10.720   10.720   0.000   0.000
0.02375   0.00725   293.591   1137.797   268.000   268.000   10.720   10.720   0.000   0.000
0.02625   0.00725   294.075   1137.797   268.000   268.000   10.720   10.720   0.000   0.000
0.02875   0.00725   294.836   1137.797   268.000   268.000   10.720   10.720   0.000   0.000
0.03125   0.00725   295.860   1137.797   268.000   268.000   10.720   10.720   0.000   0.000
0.03375   0.00725   296.661   1137.797   268.000   268.000   10.720   10.720   0.000   0.000
0.03625   0.00725   297.243   1137.797   268.000   268.000   10.720   10.720   0.000   0.000
0.03875   0.00725   297.715   1137.797   268.000   268.000   10.720   10.720   0.000   0.000
0.04125   0.00725   298.202   1137.797   268.000   268.000   10.720   10.720   0.000   0.000
0.04375   0.00725   298.822   1137.797   268.000   268.000   10.720   10.720   0.000   0.000
0.04625   0.00725   299.687   1137.797   268.000   268.000   10.720   10.720   0.000   0.000
0.04875   0.00725   300.886   1137.797   268.000   268.000   10.720   0.000   0.000   16.275
0.00125   0.00675   293.000   1137.797   268.000   268.000   0.000   10.720   0.000   0.000
0.00375   0.00675   293.001   1137.797   268.000   268.000   10.720   10.720   0.000   0.000
0.00625   0.00675   293.002   1137.797   268.000   268.000   10.720   10.720   0.000   0.000
0.00875   0.00675   293.005   1137.797   268.000   268.000   10.720   10.720   0.000   0.000
0.01125   0.00675   293.012   1137.797   268.000   268.000   10.720   10.720   0.000   0.000
0.01375   0.00675   293.030   1137.797   268.000   268.000   10.720   10.720   0.000   0.000
0.01625   0.00675   293.069   1137.797   268.000   268.000   10.720   10.720   0.000   0.000
0.01875   0.00675   293.149   1137.797   268.000   268.000   10.720   10.720   0.000   0.000
0.02125   0.00675   293.305   1137.797   268.000   268.000   10.720   10.720   0.000   0.000
0.02375   0.00675   293.588   1137.797   268.000   268.000   10.720   10.720   0.000   0.000
0.02625   0.00675   294.068   1137.797   268.000   268.000   10.720   10.720   0.000   0.000
0.02875   0.00675   294.814   1137.797   268.000   268.000   10.720   10.720   0.000   0.000
0.03125   0.00675   295.791   1137.797   268.000   268.000   10.720   10.720   0.000   0.000
0.03375   0.00675   296.577   1137.797   268.000   268.000   10.720   10.720   0.000   0.000
0.03625   0.00675   297.154   1137.797   268.000   268.000   10.720   10.720   0.000   0.000
0.03875   0.00675   297.624   1137.797   268.000   268.000   10.720   10.720   0.000   0.000
0.04125   0.00675   298.109   1137.797   268.000   268.000   10.720   10.720   0.000   0.000
0.04375   0.00675   298.728   1137.797   268.000   268.000   10.720   10.720   0.000   0.000
0.04625   0.00675   299.592   1137.797   268.000   268.000   10.720   10.720   0.000   0.000
0.04875   0.00675   300.801   1137.797   268.000   268.000   10.720   0.000   0.000   16.275
0.00125   0.00625   293.000   1137.797   268.000   2.085   0.000   10.720   0.000   0.000
0.00375   0.00625   293.001   1137.797   268.000   2.085   10.720   10.720   0.000   0.000
0.00625   0.00625   293.002   1137.797   268.000   2.085   10.720   10.720   0.000   0.000
0.00875   0.00625   293.005   1137.797   268.000   2.085   10.720   10.720   0.000   0.000
0.01125   0.00625   293.012   1137.797   268.000   2.085   10.720   10.720   0.000   0.000
0.01375   0.00625   293.030   1137.797   268.000   2.085   10.720   10.720   0.000   0.000
0.01625   0.00625   293.069   1137.797   268.000   2.085   10.720   10.720   0.000   0.000
0.01875   0.00625   293.148   1137.797   268.000   2.085   10.720   10.720   0.000   0.000
0.02125   0.00625   293.303   1137.797   268.000   2.085   10.720   10.720   0.000   0.000
0.02375   0.00625   293.585   1137.797   268.000   2.085   10.720   10.720   0.000   0.000
0.02625   0.00625   294.062   1137.797   268.000   2.085   10.720   10.720   0.000   0.000
0.02875   0.00625   294.799   1137.797   268.000   2.085   10.720   10.720   0.000   0.000
0.03125   0.00625   295.751   1137.797   268.000   2.085   10.720   10.720   0.000   0.000
0.03375   0.00625   296.528   1137.797   268.000   2.085   10.720   10.720   0.000   0.000
0.03625   0.00625   297.101   1137.797   268.000   2.085   10.720   10.720   0.000   0.000
0.03875   0.00625   297.569   1137.797   268.000   2.085   10.720   10.720   0.000   0.000
0.04125   0.00625   298.052   1137.797   268.000   2.085   10.720   10.720   0.000   0.000
0.04375   0.00625   298.669   1137.797   268.000   2.085   10.720   10.720   0.000   0.000
0.04625   0.00625   299.531   1137.797   268.000   2.085   10.720   10.720   0.000   0.000
0.04875   0.00625   300.752   1137.797   268.000   2.085   10.720   0.000   0.000   16.275
0.00125   0.00575   293.000   686.719   2.085   1.046   0.000   0.042   0.000   0.000
0.00375   0.00575   293.000   686.719   2.085   1.046   0.042   0.042   0.000   0.000
0.00625   0.00575   293.000   686.719   2.085   1.046   0.042   0.042   0.000   0.000
0.00875   0.00575   293.001   686.719   2.085   1.046   0.042   0.042   0.000   0.000
0.01125   0.00575   293.003   686.719   2.085   1.046   0.042   0.042   0.000   0.000
0.01375   0.00575   293.007   686.719   2.085   1.046   0.042   0.042   0.000   0.000
0.01625   0.00575   293.018   686.719   2.085   1.046   0.042   0.042   0.000   0.000
0.01875   0.00575   293.043   686.719   2.085   1.046   0.042   0.042   0.000   0.000
0.02125   0.00575   293.097   686.719   2.085   1.046   0.042   0.042   0.000   0.000
0.02375   0.00575   293.205   686.719   2.085   1.046   0.042   0.042   0.000   0.000
0.02625   0.00575   293.407   686.719   2.085   1.046   0.042   0.042   0.000   0.000
0.02875   0.00575   293.745   686.719   2.085   1.046   0.042   0.042   0.000   0.000
0.03125   0.00575   294.203   686.719   2.085   1.046   0.042   0.042   0.000   0.000
0.03375   0.00575   294.554   686.719   2.085   1.046   0.042   0.042   0.000   0.000
0.03625   0.00575   294.788   686.719   2.085   1.046   0.042   0.042   0.000   0.000
0.03875   0.00575   294.965   686.719   2.085   1.046   0.042   0.042   0.000   0.000
0.04125   0.00575   295.155   686.719   2.085   1.046   0.042   0.042   0.000   0.000
0.04375   0.00575   295.431   686.719   2.085   1.046   0.042   0.042   0.000   0.000
0.04625   0.00575   295.914   686.719   2.085   1.046   0.042   0.042   0.000   0.000
0.04875   0.00575   299.351   686.719   2.085   1.046   0.042   0.000   0.000   6.104
0.00125   0.00525   293.000   686.719   1.046   1.046   0.000   0.042   0.000   0.000
0.00375   0.00525   293.000   686.719   1.046   1.046   0.042   0.042   0.000   0.000
0.00625   0.00525   293.000   686.719   1.046   1.046   0.042   0.042   0.000   0.000
0.00875   0.00525   293.000   686.719   1.046   1.046   0.042   0.042   0.000   0.000
0.01125   0.00525   293.000   686.719   1.046   1.046   0.042   0.042   0.000   0.000
0.01375   0.00525   293.001   686.719   1.046   1.046   0.042   0.042   0.000   0.000
0.01625   0.00525   293.002   686.719   1.046   1.046   0.042   0.042   0.000   0.000
0.01875   0.00525   293.006   686.719   1.046   1.046   0.042   0.042   0.000   0.000
0.02125   0.00525   293.015   686.719   1.046   1.046   0.042   0.042   0.000   0.000
0.02375   0.00525   293.035   686.719   1.046   1.046   0.042   0.042   0.000   0.000
0.02625   0.00525   293.077   686.719   1.046   1.046   0.042   0.042   0.000   0.000
0.02875   0.00525   293.154   686.719   1.046   1.046   0.042   0.042   0.000   0.000
0.03125   0.00525   293.265   686.719   1.046   1.046   0.042   0.042   0.000   0.000
0.03375   0.00525   293.344   686.719   1.046   1.046   0.042   0.042   0.000   0.000
0.03625   0.00525   293.392   686.719   1.046   1.046   0.042   0.042   0.000   0.000
0.03875   0.00525   293.426   686.719   1.046   1.046   0.042   0.042   0.000   0.000
0.04125   0.00525   293.466   686.719   1.046   1.046   0.042   0.042   0.000   0.000
0.04375   0.00525   293.537   686.719   1.046   1.046   0.042   0.042   0.000   0.000
0.04625   0.00525   293.742   686.719   1.046   1.046   0.042   0.042   0.000   0.000
0.04875   0.00525   298.322   686.719   1.046   1.046   0.042   0.000   0.000   6.105
0.00125   0.00475   293.000   686.719   1.046   1.046   0.000   0.042   0.000   0.000
0.00375   0.00475   293.000   686.719   1.046   1.046   0.042   0.042   0.000   0.000
0.00625   0.00475   293.000   686.719   1.046   1.046   0.042   0.042   0.000   0.000
0.00875   0.00475   293.000   686.719   1.046   1.046   0.042   0.042   0.000   0.000
0.01125   0.00475   293.000   686.719   1.046   1.046   0.042   0.042   0.000   0.000
0.01375   0.00475   293.000   686.719   1.046   1.046   0.042   0.042   0.000   0.000
0.01625   0.00475   293.000   686.719   1.046   1.046   0.042   0.042   0.000   0.000
0.01875   0.00475   293.001   686.719   1.046   1.046   0.042   0.042   0.000   0.000
0.02125   0.00475   293.002   686.719   1.046   1.046   0.042   0.042   0.000   0.000
0.02375   0.00475   293.005   686.719   1.046   1.046   0.042   0.042   0.000   0.000
0.02625   0.00475   293.012   686.719   1.046   1.046   0.042   0.042   0.000   0.000
0.02875   0.00475   293.026   686.719   1.046   1.046   0.042   0.042   0.000   0.000
0.03125   0.00475   293.048   686.719   1.046   1.046   0.042   0.042   0.000   0.000
0.03375   0.00475   293.065   686.719   1.046   1.046   0.042   0.042   0.000   0.000
0.03625   0.00475   293.077   686.719   1.046   1.046   0.042   0.042   0.000   0.000
0.03875   0.00475   293.094   686.719   1.046   1.046   0.042   0.042   0.000   0.000
0.04125   0.00475   293.127   686.719   1.046   1.046   0.042   0.042   0.000   0.000
0.04375   0.00475   293.195   686.719   1.046   1.046   0.042   0.042   0.000   0.000
0.04625   0.00475   293.398   686.719   1.046   1.046   0.042   0.042   0.000   0.000
0.04875   0.00475   297.978   686.719   1.046   1.046   0.042   0.000   0.000   6.106
0.00125   0.00425   293.000   686.719   1.046   2.085   0.000   0.042   0.000   0.000
0.00375   0.00425   293.000   686.719   1.046   2.085   0.042   0.042   0.000   0.000
0.00625   0.00425   293.000   686.719   1.046   2.085   0.042   0.042   0.000   0.000
0.00875   0.00425   293.000   686.719   1.046   2.085   0.042   0.042   0.000   0.000
0.01125   0.00425   293.000   686.719   1.046   2.085   0.042   0.042   0.000   0.000
0.01375   0.00425   293.000   686.719   1.046   2.085   0.042   0.042   0.000   0.000
0.01625   0.00425   293.000   686.719   1.046   2.085   0.042   0.042   0.000   0.000
0.01875   0.00425   293.000   686.719   1.046   2.085   0.042   0.042   0.000   0.000
0.02125   0.00425   293.000   686.719   1.046   2.085   0.042   0.042   0.000   0.000
0.02375   0.00425   293.001   686.719   1.046   2.085   0.042   0.042   0.000   0.000
0.02625   0.00425   293.003   686.719   1.046   2.085   0.042   0.042   0.000   0.000
0.02875   0.00425   293.007   686.719   1.046   2.085   0.042   0.042   0.000   0.000
0.03125   0.00425   293.016   686.719   1.046   2.085   0.042   0.042   0.000   0.000
0.03375   0.00425   293.033   686.719   1.046   2.085   0.042   0.042   0.000   0.000
0.03625   0.00425   293.067   686.719   1.046   2.085   0.042   0.042   0.000   0.000
0.03875   0.00425   293.137   686.719   1.046   2.085   0.042   0.042   0.000   0.000
0.04125   0.00425   293.273   686.719   1.046   2.085   0.042   0.042   0.000   0.000
0.04375   0.00425   293.525   686.719   1.046   2.085   0.042   0.042   0.000   0.000
0.04625   0.00425   293.998   686.719   1.046   2.085   0.042   0.042   0.000   0.000
0.04875   0.00425   297.431   686.719   1.046   2.085   0.042   0.000   0.000   6.106
0.00125   0.00375   293.000   1137.797   2.085   268.000   0.000   10.720   0.000   0.000
0.00375   0.00375   293.000   1137.797   2.085   268.000   10.720   10.720   0.000   0.000
0.00625   0.00375   293.000   1137.797   2.085   268.000   10.720   10.720   0.000   0.000
0.00875   0.00375   293.000   1137.797   2.085   268.000   10.720   10.720   0.000   0.000
0.01125   0.00375   293.000   1137.797   2.085   268.000   10.720   10.720   0.000   0.000
0.01375   0.00375   293.000   1137.797   2.085   268.000   10.720   10.720   0.000   0.000
0.01625   0.00375   293.000   1137.797   2.085   268.000   10.720   10.720   0.000   0.000
0.01875   0.00375   293.000   1137.797   2.085   268.000   10.720   10.720   0.000   0.000
0.02125   0.00375   293.001   1137.797   2.085   268.000   10.720   10.720   0.000   0.000
0.02375   0.00375   293.003   1137.797   2.085   268.000   10.720   10.720   0.000   0.000
0.02625   0.00375   293.007   1137.797   2.085   268.000   10.720   10.720   0.000   0.000
0.02875   0.00375   293.017   1137.797   2.085   268.000   10.720   10.720   0.000   0.000
0.03125   0.00375   293.041   1137.797   2.085   268.000   10.720   10.720   0.000   0.000
0.03375   0.00375   293.091   1137.797   2.085   268.000   10.720   10.720   0.000   0.000
0.03625   0.00375   293.191   1137.797   2.085   268.000   10.720   10.720   0.000   0.000
0.03875   0.00375   293.380   1137.797   2.085   268.000   10.720   10.720   0.000   0.000
0.04125   0.00375   293.709   1137.797   2.085   268.000   10.720   10.720   0.000   0.000
0.04375   0.00375   294.247   1137.797   2.085   268.000   10.720   10.720   0.000   0.000
0.04625   0.00375   295.072   1137.797   2.085   268.000   10.720   10.720   0.000   0.000
0.04875   0.00375   296.280   1137.797   2.085   268.000   10.720   0.000   0.000   16.286
0.00125   0.00325   293.000   1137.797   268.000   268.000   0.000   10.720   0.000   0.000
0.00375   0.00325   293.000   1137.797   268.000   268.000   10.720   10.720   0.000   0.000
0.00625   0.00325   293.000   1137.797   268.000   268.000   10.720   10.720   0.000   0.000
0.00875   0.00325   293.000   1137.797   268.000   268.000   10.720   10.720   0.000   0.000
0.01125   0.00325   293.000   1137.797   268.000   268.000   10.720   10.720   0.000   0.000
0.01375   0.00325   293.000   1137.797   268.000   268.000   10.720   10.720   0.000   0.000
0.01625   0.00325   293.000   1137.797   268.000   268.000   10.720   10.720   0.000   0.000
0.01875   0.00325   293.000   1137.797   268.000   268.000   10.720   10.720   0.000   0.000
0.02125   0.00325   293.001   1137.797   268.000   268.000   10.720   10.720   0.000   0.000
0.02375   0.00325   293.003   1137.797   268.000   268.000   10.720   10.720   0.000   0.000
0.02625   0.00325   293.007   1137.797   268.000   268.000   10.720   10.720   0.000   0.000
0.02875   0.00325   293.017   1137.797   268.000   268.000   10.720   10.720   0.000   0.000
0.03125   0.00325   293.041   1137.797   268.000   268.000   10.720   10.720   0.000   0.000
0.03375   0.00325   293.091   1137.797   268.000   268.000   10.720   10.720   0.000   0.000
0.03625   0.00325   293.192   1137.797   268.000   268.000   10.720   10.720   0.000   0.000
0.03875   0.00325   293.381   1137.797   268.000   268.000   10.720   10.720   0.000   0.000
0.04125   0.00325   293.712   1137.797   268.000   268.000   10.720   10.720   0.000   0.000
0.04375   0.00325   294.252   1137.797   268.000   268.000   10.720   10.720   0.000   0.000
0.04625   0.00325   295.078   1137.797   268.000   268.000   10.720   10.720   0.000   0.000
0.04875   0.00325   296.273   1137.797   268.000   268.000   10.720   0.000   0.000   16.286
0.00125   0.00275   293.000   1137.797   268.000   268.000   0.000   10.720   0.000   0.000
0.00375   0.00275   293.000   1137.797   268.000   268.000   10.720   10.720   0.000   0.000
0.00625   0.00275   293.000   1137.797   268.000   268.000   10.720   10.720   0.000   0.000
0.00875   0.00275   293.000   1137.797   268.000   268.000   10.720   10.720   0.000   0.000
0.01125   0.00275   293.000   1137.797   268.000   268.000   10.720   10.720   0.000   0.000
0.01375   0.00275   293.000   1137.797   268.000   268.000   10.720   10.720   0.000   0.000
0.01625   0.00275   293.000   1137.797   268.000   268.000   10.720   10.720   0.000   0.000
0.01875   0.00275   293.000   1137.797   268.000   268.000   10.720   10.720   0.000   0.000
0.02125   0.00275   293.001   1137.797   268.000   268.000   10.720   10.720   0.000   0.000
0.02375   0.00275   293.003   1137.797   268.000   268.000   10.720   10.720   0.000   0.000
0.02625   0.00275   293.007   1137.797   268.000   268.000   10.720   10.720   0.000   0.000
0.02875   0.00275   293.017   1137.797   268.000   268.000   10.720   10.720   0.000   0.000
0.03125   0.00275   293.041   1137.797   268.000   268.000   10.720   10.720   0.000   0.000
0.03375   0.00275   293.092   1137.797   268.000   268.000   10.720   10.720   0.000   0.000
0.03625   0.00275   293.193   1137.797   268.000   268.000   10.720   10.720   0.000   0.000
0.03875   0.00275   293.383   1137.797   268.000   268.000   10.720   10.720   0.000   0.000
0.04125   0.00275   293.714   1137.797   268.000   268.000   10.720   10.720   0.000   0.000
0.04375   0.00275   294.255   1137.797   268.000   268.000   10.720   10.720   0.000   0.000
0.04625   0.00275   295.083   1137.797   268.000   268.000   10.720   10.720   0.000   0.000
0.04875   0.00275   296.268   1137.797   268.000   268.000   10.720   0.000   0.000   16.286
0.00125   0.00225   293.000   1137.797   268.000   268.000   0.000   10.720   0.000   0.000
0.00375   0.00225   293.000   1137.797   268.000   268.000   10.720   10.720   0.000   0.000
0.00625   0.00225   293.000   1137.797   268.000   268.000   10.720   10.720   0.000   0.000
0.00875   0.00225   293.000   1137.797   268.000   268.000   10.720   10.720   0.000   0.000
0.01125   0.00225   293.000   1137.797   268.000   268.000   10.720   10.720   0.000   0.000
0.01375   0.00225   293.000   1137.797   268.000   268.000   10.720   10.720   0.000   0.000
0.01625   0.00225   293.000   1137.797   268.000   268.000   10.720   10.720   0.000   0.000
0.01875   0.00225   293.000   1137.797   268.000   268.000   10.720   10.720   0.000   0.000
0.02125   0.00225   293.001   1137.797   268.000   268.000   10.720   10.720   0.000   0.000
0.02375   0.00225   293.003   1137.797   268.000   268.000   10.720   10.720   0.000   0.000
0.02625   0.00225   293.007   1137.797   268.000   268.000   10.720   10.720   0.000   0.000
0.02875   0.00225   293.017   1137.797   268.000   268.000   10.720   10.720   0.000   0.000
0.03125   0.00225   293.041   1137.797   268.000   268.000   10.720   10.720   0.000   0.000
0.03375   0.00225   293.092   1137.797   268.000   268.000   10.720   10.720   0.000   0.000
0.03625   0.00225   293.194   1137.797   268.000   268.000   10.720   10.720   0.000   0.000
0.03875   0.00225   293.384   1137.797   268.000   268.000   10.720   10.720   0.000   0.000
0.04125   0.00225   293.716   1137.797   268.000   268.000   10.720   10.720   0.000   0.000
0.04375   0.00225   294.259   1137.797   268.000   268.000   10.720   10.720   0.000   0.000
0.04625   0.00225   295.086   1137.797   268.000   268.000   10.720   10.720   0.000   0.000
0.04875   0.00225   296.265   1137.797   268.000   268.000   10.720   0.000   0.000   16.286
0.00125   0.00175   293.000   1137.797   268.000   268.000   0.000   10.720   0.000   0.000
0.00375   0.00175   293.000   1137.797   268.000   268.000   10.720   10.720   0.000   0.000
0.00625   0.00175   293.000   1137.797   268.000   268.000   10.720   10.720   0.000   0.000
0.00875   0.00175   293.000   1137.797   268.000   268.000   10.720   10.720   0.000   0.000
0.01125   0.00175   293.000   1137.797   268.000   268.000   10.720   10.720   0.000   0.000
0.01375   0.00175   293.000   1137.797   268.000   268.000   10.720   10.720   0.000   0.000
0.01625   0.00175   293.000   1137.797   268.000   268.000   10.720   10.720   0.000   0.000
0.01875   0.00175   293.000   1137.797   268.000   268.000   10.720   10.720   0.000   0.000
0.02125   0.00175   293.001   1137.797   268.000   268.000   10.720   10.720   0.000   0.000