VARIABLES = X, Y, T, ap,an,as,aw,ae,sp,su
ZONE I=20,J=20, F=POINT,t="10.340"
0.00125   0.00975   293.511   1137.797   0.000   268.000   0.000   10.720   0.000   -0.000
0.00375   0.00975   293.586   1137.797   0.000   268.000   10.720   10.720   0.000   -0.000
0.00625   0.00975   293.741   1137.797   0.000   268.000   10.720   10.720   0.000   -0.001
0.00875   0.00975   293.991   1137.797   0.000   268.000   10.720   10.720   0.000   -0.001
0.01125   0.00975   294.356   1137.797   0.000   268.000   10.720   10.720   0.000   -0.001
0.01375   0.00975   294.860   1137.797   0.000   268.000   10.720   10.720   0.000   -0.001
0.01625   0.00975   295.540   1137.797   0.000   268.000   10.720   10.720   0.000   -0.002
0.01875   0.00975   296.435   1137.797   0.000   268.000   10.720   10.720   0.000   -0.003
0.02125   0.00975   297.595   1137.797   0.000   268.000   10.720   10.720   0.000   -0.003
0.02375   0.00975   299.076   1137.797   0.000   268.000   10.720   10.720   0.000   -0.005
0.02625   0.00975   300.948   1137.797   0.000   268.000   10.720   10.720   0.000   -0.006
0.02875   0.00975   303.325   1137.797   0.000   268.000   10.720   10.720   0.000   -0.008
0.03125   0.00975   306.658   1137.797   0.000   268.000   10.720   10.720   0.000   81.291
0.03375   0.00975   309.201   1137.797   0.000   268.000   10.720   10.720   0.000   81.255
0.03625   0.00975   311.406   1137.797   0.000   268.000   10.720   10.720   0.000   81.224
0.03875   0.00975   313.387   1137.797   0.000   268.000   10.720   10.720   0.000   81.195
0.04125   0.00975   315.215   1137.797   0.000   268.000   10.720   10.720   0.000   81.168
0.04375   0.00975   316.943   1137.797   0.000   268.000   10.720   10.720   0.000   81.142
0.04625   0.00975   318.609   1137.797   0.000   268.000   10.720   10.720   0.000   81.116
0.04875   0.00975   320.221   1137.797   0.000   268.000   10.720   0.000   0.000   97.313
0.00125   0.00925   293.511   1137.797   268.000   268.000   0.000   10.720   0.000   0.000
0.00375   0.00925   293.585   1137.797   268.000   268.000   10.720   10.720   0.000   0.000
0.00625   0.00925   293.741   1137.797   268.000   268.000   10.720   10.720   0.000   0.000
0.00875   0.00925   293.991   1137.797   268.000   268.000   10.720   10.720   0.000   0.000
0.01125   0.00925   294.355   1137.797   268.000   268.000   10.720   10.720   0.000   0.000
0.01375   0.00925   294.860   1137.797   268.000   268.000   10.720   10.720   0.000   0.000
0.01625   0.00925   295.539   1137.797   268.000   268.000   10.720   10.720   0.000   0.000
0.01875   0.00925   296.434   1137.797   268.000   268.000   10.720   10.720   0.000   0.000
0.02125   0.00925   297.594   1137.797   268.000   268.000   10.720   10.720   0.000   0.000
0.02375   0.00925   299.074   1137.797   268.000   268.000   10.720   10.720   0.000   0.000
0.02625   0.00925   300.944   1137.797   268.000   268.000   10.720   10.720   0.000   0.000
0.02875   0.00925   303.305   1137.797   268.000   268.000   10.720   10.720   0.000   0.000
0.03125   0.00925   306.407   1137.797   268.000   268.000   10.720   10.720   0.000   0.000
0.03375   0.00925   308.934   1137.797   268.000   268.000   10.720   10.720   0.000   0.000
0.03625   0.00925   311.136   1137.797   268.000   268.000   10.720   10.720   0.000   0.000
0.03875   0.00925   313.117   1137.797   268.000   268.000   10.720   10.720   0.000   0.000
0.04125   0.00925   314.945   1137.797   268.000   268.000   10.720   10.720   0.000   0.000
0.04375   0.00925   316.673   1137.797   268.000   268.000   10.720   10.720   0.000   0.000
0.04625   0.00925   318.339   1137.797   268.000   268.000   10.720   10.720   0.000   0.000
0.04875   0.00925   319.954   1137.797   268.000   268.000   10.720   0.000   0.000   16.223
0.00125   0.00875   293.510   1137.797   268.000   268.000   0.000   10.720   0.000   0.000
0.00375   0.00875   293.585   1137.797   268.000   268.000   10.720   10.720   0.000   0.000
0.00625   0.00875   293.740   1137.797   268.000   268.000   10.720   10.720   0.000   0.000
0.00875   0.00875   293.990   1137.797   268.000   268.000   10.720   10.720   0.000   0.000
0.01125   0.00875   294.354   1137.797   268.000   268.000   10.720   10.720   0.000   0.000
0.01375   0.00875   294.858   1137.797   268.000   268.000   10.720   10.720   0.000   0.000
0.01625   0.00875   295.537   1137.797   268.000   268.000   10.720   10.720   0.000   0.000
0.01875   0.00875   296.432   1137.797   268.000   268.000   10.720   10.720   0.000   0.000
0.02125   0.00875   297.591   1137.797   268.000   268.000   10.720   10.720   0.000   0.000
0.02375   0.00875   299.070   1137.797   268.000   268.000   10.720   10.720   0.000   0.000
0.02625   0.00875   300.935   1137.797   268.000   268.000   10.720   10.720   0.000   0.000
0.02875   0.00875   303.273   1137.797   268.000   268.000   10.720   10.720   0.000   0.000
0.03125   0.00875   306.199   1137.797   268.000   268.000   10.720   10.720   0.000   0.000
0.03375   0.00875   308.703   1137.797   268.000   268.000   10.720   10.720   0.000   0.000
0.03625   0.00875   310.901   1137.797   268.000   268.000   10.720   10.720   0.000   0.000
0.03875   0.00875   312.880   1137.797   268.000   268.000   10.720   10.720   0.000   0.000
0.04125   0.00875   314.707   1137.797   268.000   268.000   10.720   10.720   0.000   0.000
0.04375   0.00875   316.435   1137.797   268.000   268.000   10.720   10.720   0.000   0.000
0.04625   0.00875   318.103   1137.797   268.000   268.000   10.720   10.720   0.000   0.000
0.04875   0.00875   319.722   1137.797   268.000   268.000   10.720   0.000   0.000   16.224
0.00125   0.00825   293.509   1137.797   268.000   268.000   0.000   10.720   0.000   0.000
0.00375   0.00825   293.584   1137.797   268.000   268.000   10.720   10.720   0.000   0.000
0.00625   0.00825   293.740   1137.797   268.000   268.000   10.720   10.720   0.000   0.000
0.00875   0.00825   293.989   1137.797   268.000   268.000   10.720   10.720   0.000   0.000
0.01125   0.00825   294.353   1137.797   268.000   268.000   10.720   10.720   0.000   0.000
0.01375   0.00825   294.856   1137.797   268.000   268.000   10.720   10.720   0.000   0.000
0.01625   0.00825   295.535   1137.797   268.000   268.000   10.720   10.720   0.000   0.000
0.01875   0.00825   296.428   1137.797   268.000   268.000   10.720   10.720   0.000   0.000
0.02125   0.00825   297.586   1137.797   268.000   268.000   10.720   10.720   0.000   0.000
0.02375   0.00825   299.063   1137.797   268.000   268.000   10.720   10.720   0.000   0.000
0.02625   0.00825   300.923   1137.797   268.000   268.000   10.720   10.720   0.000   0.000
0.02875   0.00825   303.236   1137.797   268.000   268.000   10.720   10.720   0.000   0.000
0.03125   0.00825   306.028   1137.797   268.000   268.000   10.720   10.720   0.000   0.000
0.03375   0.00825   308.506   1137.797   268.000   268.000   10.720   10.720   0.000   0.000
0.03625   0.00825   310.699   1137.797   268.000   268.000   10.720   10.720   0.000   0.000
0.03875   0.00825   312.677   1137.797   268.000   268.000   10.720   10.720   0.000   0.000
0.04125   0.00825   314.502   1137.797   268.000   268.000   10.720   10.720   0.000   0.000
0.04375   0.00825   316.230   1137.797   268.000   268.000   10.720   10.720   0.000   0.000
0.04625   0.00825   317.899   1137.797   268.000   268.000   10.720   10.720   0.000   0.000
0.04875   0.00825   319.527   1137.797   268.000   268.000   10.720   0.000   0.000   16.224
0.00125   0.00775   293.509   1137.797   268.000   268.000   0.000   10.720   0.000   0.000
0.00375   0.00775   293.583   1137.797   268.000   268.000   10.720   10.720   0.000   0.000
0.00625   0.00775   293.738   1137.797   268.000   268.000   10.720   10.720   0.000   0.000
0.00875   0.00775   293.988   1137.797   268.000   268.000   10.720   10.720   0.000   0.000
0.01125   0.00775   294.350   1137.797   268.000   268.000   10.720   10.720   0.000   0.000
0.01375   0.00775   294.854   1137.797   268.000   268.000   10.720   10.720   0.000   0.000
0.01625   0.00775   295.531   1137.797   268.000   268.000   10.720   10.720   0.000   0.000
0.01875   0.00775   296.424   1137.797   268.000   268.000   10.720   10.720   0.000   0.000
0.02125   0.00775   297.580   1137.797   268.000   268.000   10.720   10.720   0.000   0.000
0.02375   0.00775   299.055   1137.797   268.000   268.000   10.720   10.720   0.000   0.000
0.02625   0.00775   300.909   1137.797   268.000   268.000   10.720   10.720   0.000   0.000
0.02875   0.00775   303.197   1137.797   268.000   268.000   10.720   10.720   0.000   0.000
0.03125   0.00775   305.890   1137.797   268.000   268.000   10.720   10.720   0.000   0.000
0.03375   0.00775   308.344   1137.797   268.000   268.000   10.720   10.720   0.000   0.000
0.03625   0.00775   310.531   1137.797   268.000   268.000   10.720   10.720   0.000   0.000
0.03875   0.00775   312.506   1137.797   268.000   268.000   10.720   10.720   0.000   0.000
0.04125   0.00775   314.330   1137.797   268.000   268.000   10.720   10.720   0.000   0.000
0.04375   0.00775   316.057   1137.797   268.000   268.000   10.720   10.720   0.000   0.000
0.04625   0.00775   317.729   1137.797   268.000   268.000   10.720   10.720   0.000   0.000
0.04875   0.00775   319.367   1137.797   268.000   268.000   10.720   0.000   0.000   16.225
0.00125   0.00725   293.508   1137.797   268.000   268.000   0.000   10.720   0.000   0.000
0.00375   0.00725   293.582   1137.797   268.000   268.000   10.720   10.720   0.000   0.000
0.00625   0.00725   293.737   1137.797   268.000   268.000   10.720   10.720   0.000   0.000
0.00875   0.00725   293.986   1137.797   268.000   268.000   10.720   10.720   0.000   0.000
0.01125   0.00725   294.348   1137.797   268.000   268.000   10.720   10.720   0.000   0.000
0.01375   0.00725   294.850   1137.797   268.000   268.000   10.720   10.720   0.000   0.000
0.01625   0.00725   295.527   1137.797   268.000   268.000   10.720   10.720   0.000   0.000
0.01875   0.00725   296.418   1137.797   268.000   268.000   10.720   10.720   0.000   0.000
0.02125   0.00725   297.573   1137.797   268.000   268.000   10.720   10.720   0.000   0.000
0.02375   0.00725   299.045   1137.797   268.000   268.000   10.720   10.720   0.000   0.000
0.02625   0.00725   300.893   1137.797   268.000   268.000   10.720   10.720   0.000   0.000
0.02875   0.00725   303.160   1137.797   268.000   268.000   10.720   10.720   0.000   0.000
0.03125   0.00725   305.782   1137.797   268.000   268.000   10.720   10.720   0.000   0.000
0.03375   0.00725   308.215   1137.797   268.000   268.000   10.720   10.720   0.000   0.000
0.03625   0.00725   310.396   1137.797   268.000   268.000   10.720   10.720   0.000   0.000
0.03875   0.00725   312.368   1137.797   268.000   268.000   10.720   10.720   0.000   0.000
0.04125   0.00725   314.191   1137.797   268.000   268.000   10.720   10.720   0.000   0.000
0.04375   0.00725   315.916   1137.797   268.000   268.000   10.720   10.720   0.000   0.000
0.04625   0.00725   317.591   1137.797   268.000   268.000   10.720   10.720   0.000   0.000
0.04875   0.00725   319.244   1137.797   268.000   268.000   10.720   0.000   0.000   16.225
0.00125   0.00675   293.506   1137.797   268.000   268.000   0.000   10.720   0.000   0.000
0.00375   0.00675   293.580   1137.797   268.000   268.000   10.720   10.720   0.000   0.000
0.00625   0.00675   293.735   1137.797   268.000   268.000   10.720   10.720   0.000   0.000
0.00875   0.00675   293.983   1137.797   268.000   268.000   10.720   10.720   0.000   0.000
0.01125   0.00675   294.345   1137.797   268.000   268.000   10.720   10.720   0.000   0.000
0.01375   0.00675   294.846   1137.797   268.000   268.000   10.720   10.720   0.000   0.000
0.01625   0.00675   295.521   1137.797   268.000   268.000   10.720   10.720   0.000   0.000
0.01875   0.00675   296.411   1137.797   268.000   268.000   10.720   10.720   0.000   0.000
0.02125   0.00675   297.564   1137.797   268.000   268.000   10.720   10.720   0.000   0.000
0.02375   0.00675   299.033   1137.797   268.000   268.000   10.720   10.720   0.000   0.000
0.02625   0.00675   300.876   1137.797   268.000   268.000   10.720   10.720   0.000   0.000
0.02875   0.00675   303.127   1137.797   268.000   268.000   10.720   10.720   0.000   0.000
0.03125   0.00675   305.702   1137.797   268.000   268.000   10.720   10.720   0.000   0.000
0.03375   0.00675   308.119   1137.797   268.000   268.000   10.720   10.720   0.000   0.000
0.03625   0.00675   310.294   1137.797   268.000   268.000   10.720   10.720   0.000   0.000
0.03875   0.00675   312.263   1137.797   268.000   268.000   10.720   10.720   0.000   0.000
0.04125   0.00675   314.083   1137.797   268.000   268.000   10.720   10.720   0.000   0.000
0.04375   0.00675   315.808   1137.797   268.000   268.000   10.720   10.720   0.000   0.000
0.04625   0.00675   317.484   1137.797   268.000   268.000   10.720   10.720   0.000   0.000
0.04875   0.00675   319.158   1137.797   268.000   268.000   10.720   0.000   0.000   16.225
0.00125   0.00625   293.505   1137.797   268.000   2.085   0.000   10.720   0.000   0.000
0.00375   0.00625   293.579   1137.797   268.000   2.085   10.720   10.720   0.000   0.000
0.00625   0.00625   293.733   1137.797   268.000   2.085   10.720   10.720   0.000   0.000
0.00875   0.00625   293.981   1137.797   268.000   2.085   10.720   10.720   0.000   0.000
0.01125   0.00625   294.341   1137.797   268.000   2.085   10.720   10.720   0.000   0.000
0.01375   0.00625   294.842   1137.797   268.000   2.085   10.720   10.720   0.000   0.000
0.01625   0.00625   295.515   1137.797   268.000   2.085   10.720   10.720   0.000   0.000
0.01875   0.00625   296.403   1137.797   268.000   2.085   10.720   10.720   0.000   0.000
0.02125   0.00625   297.554   1137.797   268.000   2.085   10.720   10.720   0.000   0.000
0.02375   0.00625   299.020   1137.797   268.000   2.085   10.720   10.720   0.000   0.000
0.02625   0.00625   300.858   1137.797   268.000   2.085   10.720   10.720   0.000   0.000
0.02875   0.00625   303.099   1137.797   268.000   2.085   10.720   10.720   0.000   0.000
0.03125   0.00625   305.649   1137.797   268.000   2.085   10.720   10.720   0.000   0.000
0.03375   0.00625   308.055   1137.797   268.000   2.085   10.720   10.720   0.000   0.000
0.03625   0.00625   310.225   1137.797   268.000   2.085   10.720   10.720   0.000   0.000
0.03875   0.00625   312.191   1137.797   268.000   2.085   10.720   10.720   0.000   0.000
0.04125   0.00625   314.009   1137.797   268.000   2.085   10.720   10.720   0.000   0.000
0.04375   0.00625   315.731   1137.797   268.000   2.085   10.720   10.720   0.000   0.000
0.04625   0.00625   317.409   1137.797   268.000   2.085   10.720   10.720   0.000   0.000
0.04875   0.00625   319.111   1137.797   268.000   2.085   10.720   0.000   0.000   16.226
0.00125   0.00575   293.280   686.719   2.085   1.046   0.000   0.042   0.000   0.000
0.00375   0.00575   293.327   686.719   2.085   1.046   0.042   0.042   0.000   0.000
0.00625   0.00575   293.425   686.719   2.085   1.046   0.042   0.042   0.000   0.000
0.00875   0.00575   293.585   686.719   2.085   1.046   0.042   0.042   0.000   0.000
0.01125   0.00575   293.822   686.719   2.085   1.046   0.042   0.042   0.000   0.000
0.01375   0.00575   294.158   686.719   2.085   1.046   0.042   0.042   0.000   0.000
0.01625   0.00575   294.618   686.719   2.085   1.046   0.042   0.042   0.000   0.000
0.01875   0.00575   295.239   686.719   2.085   1.046   0.042   0.042   0.000   0.000
0.02125   0.00575   296.060   686.719   2.085   1.046   0.042   0.042   0.000   0.000
0.02375   0.00575   297.129   686.719   2.085   1.046   0.042   0.042   0.000   0.000
0.02625   0.00575   298.496   686.719   2.085   1.046   0.042   0.042   0.000   0.000
0.02875   0.00575   300.191   686.719   2.085   1.046   0.042   0.042   0.000   0.000
0.03125   0.00575   302.139   686.719   2.085   1.046   0.042   0.042   0.000   0.000
0.03375   0.00575   303.978   686.719   2.085   1.046   0.042   0.042   0.000   0.000
0.03625   0.00575   305.636   686.719   2.085   1.046   0.042   0.042   0.000   0.000
0.03875   0.00575   307.149   686.719   2.085   1.046   0.042   0.042   0.000   0.000
0.04125   0.00575   308.576   686.719   2.085   1.046   0.042   0.042   0.000   0.000
0.04375   0.00575   309.981   686.719   2.085   1.046   0.042   0.042   0.000   0.000
0.04625   0.00575   311.607   686.719   2.085   1.046   0.042   0.042   0.000   0.000
0.04875   0.00575   317.993   686.719   2.085   1.046   0.042   0.000   0.000   6.086
0.00125   0.00525   293.101   686.719   1.046   1.046   0.000   0.042   0.000   0.000
0.00375   0.00525   293.121   686.719   1.046   1.046   0.042   0.042   0.000   0.000
0.00625   0.00525   293.163   686.719   1.046   1.046   0.042   0.042   0.000   0.000
0.00875   0.00525   293.234   686.719   1.046   1.046   0.042   0.042   0.000   0.000
0.01125   0.00525   293.341   686.719   1.046   1.046   0.042   0.042   0.000   0.000
0.01375   0.00525   293.498   686.719   1.046   1.046   0.042   0.042   0.000   0.000
0.01625   0.00525   293.721   686.719   1.046   1.046   0.042   0.042   0.000   0.000
0.01875   0.00525   294.031   686.719   1.046   1.046   0.042   0.042   0.000   0.000
0.02125   0.00525   294.457   686.719   1.046   1.046   0.042   0.042   0.000   0.000
0.02375   0.00525   295.031   686.719   1.046   1.046   0.042   0.042   0.000   0.000
0.02625   0.00525   295.789   686.719   1.046   1.046   0.042   0.042   0.000   0.000
0.02875   0.00525   296.757   686.719   1.046   1.046   0.042   0.042   0.000   0.000
0.03125   0.00525   297.891   686.719   1.046   1.046   0.042   0.042   0.000   0.000
0.03375   0.00525   298.974   686.719   1.046   1.046   0.042   0.042   0.000   0.000
0.03625   0.00525   299.968   686.719   1.046   1.046   0.042   0.042   0.000   0.000
0.03875   0.00525   300.912   686.719   1.046   1.046   0.042   0.042   0.000   0.000
0.04125   0.00525   301.856   686.719   1.046   1.046   0.042   0.042   0.000   0.000
0.04375   0.00525   302.874   686.719   1.046   1.046   0.042   0.042   0.000   0.000
0.04625   0.00525   304.445   686.719   1.046   1.046   0.042   0.042   0.000   0.000
0.04875   0.00525   315.132   686.719   1.046   1.046   0.042   0.000   0.000   6.089
0.00125   0.00475   293.036   686.719   1.046   1.046   0.000   0.042   0.000   0.000
0.00375   0.00475   293.044   686.719   1.046   1.046   0.042   0.042   0.000   0.000
0.00625   0.00475   293.062   686.719   1.046   1.046   0.042   0.042   0.000   0.000
0.00875   0.00475   293.093   686.719   1.046   1.046   0.042   0.042   0.000   0.000
0.01125   0.00475   293.140   686.719   1.046   1.046   0.042   0.042   0.000   0.000
0.01375   0.00475   293.213   686.719   1.046   1.046   0.042   0.042   0.000   0.000
0.01625   0.00475   293.319   686.719   1.046   1.046   0.042   0.042   0.000   0.000
0.01875   0.00475   293.471   686.719   1.046   1.046   0.042   0.042   0.000   0.000
0.02125   0.00475   293.688   686.719   1.046   1.046   0.042   0.042   0.000   0.000
0.02375   0.00475   293.990   686.719   1.046   1.046   0.042   0.042   0.000   0.000
0.02625   0.00475   294.400   686.719   1.046   1.046   0.042   0.042   0.000   0.000
0.02875   0.00475   294.941   686.719   1.046   1.046   0.042   0.042   0.000   0.000
0.03125   0.00475   295.593   686.719   1.046   1.046   0.042   0.042   0.000   0.000
0.03375   0.00475   296.251   686.719   1.046   1.046   0.042   0.042   0.000   0.000
0.03625   0.00475   296.904   686.719   1.046   1.046   0.042   0.042   0.000   0.000
0.03875   0.00475   297.584   686.719   1.046   1.046   0.042   0.042   0.000   0.000
0.04125   0.00475   298.334   686.719   1.046   1.046   0.042   0.042   0.000   0.000
0.04375   0.00475   299.214   686.719   1.046   1.046   0.042   0.042   0.000   0.000
0.04625   0.00475   300.699   686.719   1.046   1.046   0.042   0.042   0.000   0.000
0.04875   0.00475   311.347   686.719   1.046   1.046   0.042   0.000   0.000   6.093
0.00125   0.00425   293.019   686.719   1.046   2.085   0.000   0.042   0.000   0.000
0.00375   0.00425   293.024   686.719   1.046   2.085   0.042   0.042   0.000   0.000
0.00625   0.00425   293.034   686.719   1.046   2.085   0.042   0.042   0.000   0.000
0.00875   0.00425   293.052   686.719   1.046   2.085   0.042   0.042   0.000   0.000
0.01125   0.00425   293.080   686.719   1.046   2.085   0.042   0.042   0.000   0.000
0.01375   0.00425   293.122   686.719   1.046   2.085   0.042   0.042   0.000   0.000
0.01625   0.00425   293.185   686.719   1.046   2.085   0.042   0.042   0.000   0.000
0.01875   0.00425   293.276   686.719   1.046   2.085   0.042   0.042   0.000   0.000
0.02125   0.00425   293.407   686.719   1.046   2.085   0.042   0.042   0.000   0.000
0.02375   0.00425   293.589   686.719   1.046   2.085   0.042   0.042   0.000   0.000
0.02625   0.00425   293.838   686.719   1.046   2.085   0.042   0.042   0.000   0.000
0.02875   0.00425   294.170   686.719   1.046   2.085   0.042   0.042   0.000   0.000
0.03125   0.00425   294.590   686.719   1.046   2.085   0.042   0.042   0.000   0.000
0.03375   0.00425   295.076   686.719   1.046   2.085   0.042   0.042   0.000   0.000
0.03625   0.00425   295.638   686.719   1.046   2.085   0.042   0.042   0.000   0.000
0.03875   0.00425   296.299   686.719   1.046   2.085   0.042   0.042   0.000   0.000
0.04125   0.00425   297.088   686.719   1.046   2.085   0.042   0.042   0.000   0.000
0.04375   0.00425   298.041   686.719   1.046   2.085   0.042   0.042   0.000   0.000
0.04625   0.00425   299.380   686.719   1.046   2.085   0.042   0.042   0.000   0.000
0.04875   0.00425   305.632   686.719   1.046   2.085   0.042   0.000   0.000   6.099
0.00125   0.00375   293.025   1137.797   2.085   268.000   0.000   10.720   0.000   0.000
0.00375   0.00375   293.030   1137.797   2.085   268.000   10.720   10.720   0.000   0.000
0.00625   0.00375   293.042   1137.797   2.085   268.000   10.720   10.720   0.000   0.000
0.00875   0.00375   293.062   1137.797   2.085   268.000   10.720   10.720   0.000   0.000
0.01125   0.00375   293.092   1137.797   2.085   268.000   10.720   10.720   0.000   0.000
0.01375   0.00375   293.137   1137.797   2.085   268.000   10.720   10.720   0.000   0.000
0.01625   0.00375   293.202   1137.797   2.085   268.000   10.720   10.720   0.000   0.000
0.01875   0.00375   293.293   1137.797   2.085   268.000   10.720   10.720   0.000   0.000
0.02125   0.00375   293.419   1137.797   2.085   268.000   10.720   10.720   0.000   0.000
0.02375   0.00375   293.590   1137.797   2.085   268.000   10.720   10.720   0.000   0.000
0.02625   0.00375   293.818   1137.797   2.085   268.000   10.720   10.720   0.000   0.000
0.02875   0.00375   294.115   1137.797   2.085   268.000   10.720   10.720   0.000   0.000
0.03125   0.00375   294.496   1137.797   2.085   268.000   10.720   10.720   0.000   0.000
0.03375   0.00375   294.976   1137.797   2.085   268.000   10.720   10.720   0.000   0.000
0.03625   0.00375   295.573   1137.797   2.085   268.000   10.720   10.720   0.000   0.000
0.03875   0.00375   296.304   1137.797   2.085   268.000   10.720   10.720   0.000   0.000
0.04125   0.00375   297.188   1137.797   2.085   268.000   10.720   10.720   0.000   0.000
0.04375   0.00375   298.244   1137.797   2.085   268.000   10.720   10.720   0.000   0.000
0.04625   0.00375   299.495   1137.797   2.085   268.000   10.720   10.720   0.000   0.000
0.04875   0.00375   300.990   1137.797   2.085   268.000   10.720   0.000   0.000   16.275
0.00125   0.00325   293.025   1137.797   268.000   268.000   0.000   10.720   0.000   0.000
0.00375   0.00325   293.030   1137.797   268.000   268.000   10.720   10.720   0.000   0.000
0.00625   0.00325   293.042   1137.797   268.000   268.000   10.720   10.720   0.000   0.000
0.00875   0.00325   293.062   1137.797   268.000   268.000   10.720   10.720   0.000   0.000
0.01125   0.00325   293.092   1137.797   268.000   268.000   10.720   10.720   0.000   0.000
0.01375   0.00325   293.137   1137.797   268.000   268.000   10.720   10.720   0.000   0.000
0.01625   0.00325   293.202   1137.797   268.000   268.000   10.720   10.720   0.000   0.000
0.01875   0.00325   293.294   1137.797   268.000   268.000   10.720   10.720   0.000   0.000
0.02125   0.00325   293.420   1137.797   268.000   268.000   10.720   10.720   0.000   0.000
0.02375   0.00325   293.590   1137.797   268.000   268.000   10.720   10.720   0.000   0.000
0.02625   0.00325   293.817   1137.797   268.000   268.000   10.720   10.720   0.000   0.000
0.02875   0.00325   294.114   1137.797   268.000   268.000   10.720   10.720   0.000   0.000
0.03125   0.00325   294.495   1137.797   268.000   268.000   10.720   10.720   0.000   0.000
0.03375   0.00325   294.975   1137.797   268.000   268.000   10.720   10.720   0.000   0.000
0.03625   0.00325   295.572   1137.797   268.000   268.000   10.720   10.720   0.000   0.000
0.03875   0.00325   296.304   1137.797   268.000   268.000   10.720   10.720   0.000   0.000
0.04125   0.00325   297.189   1137.797   268.000   268.000   10.720   10.720   0.000   0.000
0.04375   0.00325   298.245   1137.797   268.000   268.000   10.720   10.720   0.000   0.000
0.04625   0.00325   299.494   1137.797   268.000   268.000   10.720   10.720   0.000   0.000
0.04875   0.00325   300.961   1137.797   268.000   268.000   10.720   0.000   0.000   16.275
0.00125   0.00275   293.025   1137.797   268.000   268.000   0.000   10.720   0.000   0.000
0.00375   0.00275   293.030   1137.797   268.000   268.000   10.720   10.720   0.000   0.000
0.00625   0.00275   293.042   1137.797   268.000   268.000   10.720   10.720   0.000   0.000
0.00875   0.00275   293.062   1137.797   268.000   268.000   10.720   10.720   0.000   0.000
0.01125   0.00275   293.092   1137.797   268.000   268.000   10.720   10.720   0.000   0.000
0.01375   0.00275   293.137   1137.797   268.000   268.000   10.720   10.720   0.000   0.000
0.01625   0.00275   293.202   1137.797   268.000   268.000   10.720   10.720   0.000   0.000
0.01875   0.00275   293.294   1137.797   268.000   268.000   10.720   10.720   0.000   0.000
0.02125   0.00275   293.420   1137.797   268.000   268.000   10.720   10.720   0.000   0.000
0.02375   0.00275   293.590   1137.797   268.000   268.000   10.720   10.720   0.000   0.000
0.02625   0.00275   293.817   1137.797   268.000   268.000   10.720   10.720   0.000   0.000
0.02875   0.00275   294.114   1137.797   268.000   268.000   10.720   10.720   0.000   0.000
0.03125   0.00275   294.495   1137.797   268.000   268.000   10.720   10.720   0.000   0.000
0.03375   0.00275   294.975   1137.797   268.000   268.000   10.720   10.720   0.000   0.000
0.03625   0.00275   295.572   1137.797   268.000   268.000   10.720   10.720   0.000   0.000
0.03875   0.00275   296.304   1137.797   268.000   268.000   10.720   10.720   0.000   0.000
0.04125   0.00275   297.189   1137.797   268.000   268.000   10.720   10.720   0.000   0.000
0.04375   0.00275   298.246   1137.797   268.000   268.000   10.720   10.720   0.000   0.000
0.04625   0.00275   299.492   1137.797   268.000   268.000   10.720   10.720   0.000   0.000
0.04875   0.00275   300.938   1137.797   268.000   268.000   10.720   0.000   0.000   16.275
0.00125   0.00225   293.025   1137.797   268.000   268.000   0.000   10.720   0.000   0.000
0.00375   0.00225   293.030   1137.797   268.000   268.000   10.720   10.720   0.000   0.000
0.00625   0.00225   293.042   1137.797   268.000   268.000   10.720   10.720   0.000   0.000
0.00875   0.00225   293.062   1137.797   268.000   268.000   10.720   10.720   0.000   0.000
0.01125   0.00225   293.092   1137.797   268.000   268.000   10.720   10.720   0.000   0.000
0.01375   0.00225   293.138   1137.797   268.000   268.000   10.720   10.720   0.000   0.000
0.01625   0.00225   293.202   1137.797   268.000   268.000   10.720   10.720   0.000   0.000
0.01875   0.00225   293.294   1137.797   268.000   268.000   10.720   10.720   0.000   0.000
0.02125   0.00225   293.420   1137.797   268.000   268.000   10.720   10.720   0.000   0.000
0.02375   0.00225   293.590   1137.797   268.000   268.000   10.720   10.720   0.000   0.000
0.02625   0.00225   293.817   1137.797   268.000   268.000   10.720   10.720   0.000   0.000
0.02875   0.00225   294.114   1137.797   268.000   268.000   10.720   10.720   0.000   0.000
0.03125   0.00225   294.494   1137.797   268.000   268.000   10.720   10.720   0.000   0.000
0.03375   0.00225   294.974   1137.797   268.000   268.000   10.720   10.720   0.000   0.000
0.03625   0.00225   295.572   1137.797   268.000   268.000   10.720   10.720   0.000   0.000
0.03875   0.00225   296.304   1137.797   268.000   268.000   10.720   10.720   0.000   0.000
0.04125   0.00225   297.190   1137.797   268.000   268.000   10.720   10.720   0.000   0.000
0.04375   0.00225   298.246   1137.797   268.000   268.000   10.720   10.720   0.000   0.000
0.04625   0.00225   299.489   1137.797   268.000   268.000   10.720   10.720   0.000   0.000
0.04875   0.00225   300.920   1137.797   268.000   268.000   10.720   0.000   0.000   16.275
0.00125   0.00175   293.025   1137.797   268.000   268.000   0.000   10.720   0.000   0.000
0.00375   0.00175   293.030   1137.797   268.000   268.000   10.720   10.720   0.000   0.000
0.00625   0.00175   293.042   1137.797   268.000   268.000   10.720   10.720   0.000   0.000
0.00875   0.00175   293.062   1137.797   268.000   268.000   10.720   10.720   0.000   0.000
0.01125   0.00175   293.092   1137.797   268.000   268.000   10.720   10.720   0.000   0.000
0.01375   0.00175   293.138   1137.797   268.000   268.000   10.720   10.720   0.000   0.000
0.01625   0.00175   293.203   1137.797   268.000   268.000   10.720   10.720   0.000   0.000
0.01875   0.00175   293.294   1137.797   268.000   268.000   10.720   10.720   0.000   0.000
0.02125   0.00175   293.420   1137.797   268.000   268.000   10.720   10.720   0.000   0.000