VARIABLES = X, Y, T, ap,an,as,aw,ae,sp,su
ZONE I=20,J=20, F=POINT,t="19.480"
0.00125   0.00975   296.132   1137.797   0.000   268.000   0.000   10.720   0.000   -0.002
0.00375   0.00975   296.323   1137.797   0.000   268.000   10.720   10.720   0.000   -0.002
0.00625   0.00975   296.711   1137.797   0.000   268.000   10.720   10.720   0.000   -0.003
0.00875   0.00975   297.308   1137.797   0.000   268.000   10.720   10.720   0.000   -0.003
0.01125   0.00975   298.130   1137.797   0.000   268.000   10.720   10.720   0.000   -0.004
0.01375   0.00975   299.200   1137.797   0.000   268.000   10.720   10.720   0.000   -0.005
0.01625   0.00975   300.544   1137.797   0.000   268.000   10.720   10.720   0.000   -0.006
0.01875   0.00975   302.194   1137.797   0.000   268.000   10.720   10.720   0.000   -0.007
0.02125   0.00975   304.187   1137.797   0.000   268.000   10.720   10.720   0.000   -0.008
0.02375   0.00975   306.563   1137.797   0.000   268.000   10.720   10.720   0.000   -0.010
0.02625   0.00975   309.373   1137.797   0.000   268.000   10.720   10.720   0.000   -0.012
0.02875   0.00975   312.707   1137.797   0.000   268.000   10.720   10.720   0.000   -0.015
0.03125   0.00975   316.991   1137.797   0.000   268.000   10.720   10.720   0.000   81.141
0.03375   0.00975   320.455   1137.797   0.000   268.000   10.720   10.720   0.000   81.087
0.03625   0.00975   323.520   1137.797   0.000   268.000   10.720   10.720   0.000   81.039
0.03875   0.00975   326.275   1137.797   0.000   268.000   10.720   10.720   0.000   80.994
0.04125   0.00975   328.762   1137.797   0.000   268.000   10.720   10.720   0.000   80.952
0.04375   0.00975   331.010   1137.797   0.000   268.000   10.720   10.720   0.000   80.914
0.04625   0.00975   333.037   1137.797   0.000   268.000   10.720   10.720   0.000   80.879
0.04875   0.00975   334.833   1137.797   0.000   268.000   10.720   0.000   0.000   97.023
0.00125   0.00925   296.131   1137.797   268.000   268.000   0.000   10.720   0.000   0.000
0.00375   0.00925   296.322   1137.797   268.000   268.000   10.720   10.720   0.000   0.000
0.00625   0.00925   296.710   1137.797   268.000   268.000   10.720   10.720   0.000   0.000
0.00875   0.00925   297.307   1137.797   268.000   268.000   10.720   10.720   0.000   0.000
0.01125   0.00925   298.129   1137.797   268.000   268.000   10.720   10.720   0.000   0.000
0.01375   0.00925   299.198   1137.797   268.000   268.000   10.720   10.720   0.000   0.000
0.01625   0.00925   300.542   1137.797   268.000   268.000   10.720   10.720   0.000   0.000
0.01875   0.00925   302.192   1137.797   268.000   268.000   10.720   10.720   0.000   0.000
0.02125   0.00925   304.185   1137.797   268.000   268.000   10.720   10.720   0.000   0.000
0.02375   0.00925   306.560   1137.797   268.000   268.000   10.720   10.720   0.000   0.000
0.02625   0.00925   309.367   1137.797   268.000   268.000   10.720   10.720   0.000   0.000
0.02875   0.00925   312.686   1137.797   268.000   268.000   10.720   10.720   0.000   0.000
0.03125   0.00925   316.740   1137.797   268.000   268.000   10.720   10.720   0.000   0.000
0.03375   0.00925   320.187   1137.797   268.000   268.000   10.720   10.720   0.000   0.000
0.03625   0.00925   323.251   1137.797   268.000   268.000   10.720   10.720   0.000   0.000
0.03875   0.00925   326.005   1137.797   268.000   268.000   10.720   10.720   0.000   0.000
0.04125   0.00925   328.492   1137.797   268.000   268.000   10.720   10.720   0.000   0.000
0.04375   0.00925   330.740   1137.797   268.000   268.000   10.720   10.720   0.000   0.000
0.04625   0.00925   332.768   1137.797   268.000   268.000   10.720   10.720   0.000   0.000
0.04875   0.00925   334.567   1137.797   268.000   268.000   10.720   0.000   0.000   16.177
0.00125   0.00875   296.129   1137.797   268.000   268.000   0.000   10.720   0.000   0.000
0.00375   0.00875   296.320   1137.797   268.000   268.000   10.720   10.720   0.000   0.000
0.00625   0.00875   296.708   1137.797   268.000   268.000   10.720   10.720   0.000   0.000
0.00875   0.00875   297.305   1137.797   268.000   268.000   10.720   10.720   0.000   0.000
0.01125   0.00875   298.126   1137.797   268.000   268.000   10.720   10.720   0.000   0.000
0.01375   0.00875   299.195   1137.797   268.000   268.000   10.720   10.720   0.000   0.000
0.01625   0.00875   300.539   1137.797   268.000   268.000   10.720   10.720   0.000   0.000
0.01875   0.00875   302.188   1137.797   268.000   268.000   10.720   10.720   0.000   0.000
0.02125   0.00875   304.180   1137.797   268.000   268.000   10.720   10.720   0.000   0.000
0.02375   0.00875   306.554   1137.797   268.000   268.000   10.720   10.720   0.000   0.000
0.02625   0.00875   309.356   1137.797   268.000   268.000   10.720   10.720   0.000   0.000
0.02875   0.00875   312.652   1137.797   268.000   268.000   10.720   10.720   0.000   0.000
0.03125   0.00875   316.530   1137.797   268.000   268.000   10.720   10.720   0.000   0.000
0.03375   0.00875   319.955   1137.797   268.000   268.000   10.720   10.720   0.000   0.000
0.03625   0.00875   323.014   1137.797   268.000   268.000   10.720   10.720   0.000   0.000
0.03875   0.00875   325.768   1137.797   268.000   268.000   10.720   10.720   0.000   0.000
0.04125   0.00875   328.254   1137.797   268.000   268.000   10.720   10.720   0.000   0.000
0.04375   0.00875   330.502   1137.797   268.000   268.000   10.720   10.720   0.000   0.000
0.04625   0.00875   332.531   1137.797   268.000   268.000   10.720   10.720   0.000   0.000
0.04875   0.00875   334.336   1137.797   268.000   268.000   10.720   0.000   0.000   16.177
0.00125   0.00825   296.126   1137.797   268.000   268.000   0.000   10.720   0.000   0.000
0.00375   0.00825   296.317   1137.797   268.000   268.000   10.720   10.720   0.000   0.000
0.00625   0.00825   296.705   1137.797   268.000   268.000   10.720   10.720   0.000   0.000
0.00875   0.00825   297.301   1137.797   268.000   268.000   10.720   10.720   0.000   0.000
0.01125   0.00825   298.123   1137.797   268.000   268.000   10.720   10.720   0.000   0.000
0.01375   0.00825   299.191   1137.797   268.000   268.000   10.720   10.720   0.000   0.000
0.01625   0.00825   300.533   1137.797   268.000   268.000   10.720   10.720   0.000   0.000
0.01875   0.00825   302.182   1137.797   268.000   268.000   10.720   10.720   0.000   0.000
0.02125   0.00825   304.172   1137.797   268.000   268.000   10.720   10.720   0.000   0.000
0.02375   0.00825   306.544   1137.797   268.000   268.000   10.720   10.720   0.000   0.000
0.02625   0.00825   309.342   1137.797   268.000   268.000   10.720   10.720   0.000   0.000
0.02875   0.00825   312.612   1137.797   268.000   268.000   10.720   10.720   0.000   0.000
0.03125   0.00825   316.357   1137.797   268.000   268.000   10.720   10.720   0.000   0.000
0.03375   0.00825   319.756   1137.797   268.000   268.000   10.720   10.720   0.000   0.000
0.03625   0.00825   322.810   1137.797   268.000   268.000   10.720   10.720   0.000   0.000
0.03875   0.00825   325.562   1137.797   268.000   268.000   10.720   10.720   0.000   0.000
0.04125   0.00825   328.047   1137.797   268.000   268.000   10.720   10.720   0.000   0.000
0.04375   0.00825   330.295   1137.797   268.000   268.000   10.720   10.720   0.000   0.000
0.04625   0.00825   332.327   1137.797   268.000   268.000   10.720   10.720   0.000   0.000
0.04875   0.00825   334.140   1137.797   268.000   268.000   10.720   0.000   0.000   16.178
0.00125   0.00775   296.123   1137.797   268.000   268.000   0.000   10.720   0.000   0.000
0.00375   0.00775   296.314   1137.797   268.000   268.000   10.720   10.720   0.000   0.000
0.00625   0.00775   296.701   1137.797   268.000   268.000   10.720   10.720   0.000   0.000
0.00875   0.00775   297.297   1137.797   268.000   268.000   10.720   10.720   0.000   0.000
0.01125   0.00775   298.117   1137.797   268.000   268.000   10.720   10.720   0.000   0.000
0.01375   0.00775   299.185   1137.797   268.000   268.000   10.720   10.720   0.000   0.000
0.01625   0.00775   300.526   1137.797   268.000   268.000   10.720   10.720   0.000   0.000
0.01875   0.00775   302.173   1137.797   268.000   268.000   10.720   10.720   0.000   0.000
0.02125   0.00775   304.162   1137.797   268.000   268.000   10.720   10.720   0.000   0.000
0.02375   0.00775   306.532   1137.797   268.000   268.000   10.720   10.720   0.000   0.000
0.02625   0.00775   309.323   1137.797   268.000   268.000   10.720   10.720   0.000   0.000
0.02875   0.00775   312.569   1137.797   268.000   268.000   10.720   10.720   0.000   0.000
0.03125   0.00775   316.215   1137.797   268.000   268.000   10.720   10.720   0.000   0.000
0.03375   0.00775   319.590   1137.797   268.000   268.000   10.720   10.720   0.000   0.000
0.03625   0.00775   322.639   1137.797   268.000   268.000   10.720   10.720   0.000   0.000
0.03875   0.00775   325.388   1137.797   268.000   268.000   10.720   10.720   0.000   0.000
0.04125   0.00775   327.872   1137.797   268.000   268.000   10.720   10.720   0.000   0.000
0.04375   0.00775   330.120   1137.797   268.000   268.000   10.720   10.720   0.000   0.000
0.04625   0.00775   332.155   1137.797   268.000   268.000   10.720   10.720   0.000   0.000
0.04875   0.00775   333.980   1137.797   268.000   268.000   10.720   0.000   0.000   16.179
0.00125   0.00725   296.118   1137.797   268.000   268.000   0.000   10.720   0.000   0.000
0.00375   0.00725   296.309   1137.797   268.000   268.000   10.720   10.720   0.000   0.000
0.00625   0.00725   296.696   1137.797   268.000   268.000   10.720   10.720   0.000   0.000
0.00875   0.00725   297.291   1137.797   268.000   268.000   10.720   10.720   0.000   0.000
0.01125   0.00725   298.111   1137.797   268.000   268.000   10.720   10.720   0.000   0.000
0.01375   0.00725   299.177   1137.797   268.000   268.000   10.720   10.720   0.000   0.000
0.01625   0.00725   300.517   1137.797   268.000   268.000   10.720   10.720   0.000   0.000
0.01875   0.00725   302.163   1137.797   268.000   268.000   10.720   10.720   0.000   0.000
0.02125   0.00725   304.150   1137.797   268.000   268.000   10.720   10.720   0.000   0.000
0.02375   0.00725   306.517   1137.797   268.000   268.000   10.720   10.720   0.000   0.000
0.02625   0.00725   309.302   1137.797   268.000   268.000   10.720   10.720   0.000   0.000
0.02875   0.00725   312.527   1137.797   268.000   268.000   10.720   10.720   0.000   0.000
0.03125   0.00725   316.102   1137.797   268.000   268.000   10.720   10.720   0.000   0.000
0.03375   0.00725   319.457   1137.797   268.000   268.000   10.720   10.720   0.000   0.000
0.03625   0.00725   322.500   1137.797   268.000   268.000   10.720   10.720   0.000   0.000
0.03875   0.00725   325.247   1137.797   268.000   268.000   10.720   10.720   0.000   0.000
0.04125   0.00725   327.729   1137.797   268.000   268.000   10.720   10.720   0.000   0.000
0.04375   0.00725   329.977   1137.797   268.000   268.000   10.720   10.720   0.000   0.000
0.04625   0.00725   332.015   1137.797   268.000   268.000   10.720   10.720   0.000   0.000
0.04875   0.00725   333.857   1137.797   268.000   268.000   10.720   0.000   0.000   16.179
0.00125   0.00675   296.113   1137.797   268.000   268.000   0.000   10.720   0.000   0.000
0.00375   0.00675   296.303   1137.797   268.000   268.000   10.720   10.720   0.000   0.000
0.00625   0.00675   296.690   1137.797   268.000   268.000   10.720   10.720   0.000   0.000
0.00875   0.00675   297.284   1137.797   268.000   268.000   10.720   10.720   0.000   0.000
0.01125   0.00675   298.103   1137.797   268.000   268.000   10.720   10.720   0.000   0.000
0.01375   0.00675   299.168   1137.797   268.000   268.000   10.720   10.720   0.000   0.000
0.01625   0.00675   300.506   1137.797   268.000   268.000   10.720   10.720   0.000   0.000
0.01875   0.00675   302.150   1137.797   268.000   268.000   10.720   10.720   0.000   0.000
0.02125   0.00675   304.135   1137.797   268.000   268.000   10.720   10.720   0.000   0.000
0.02375   0.00675   306.499   1137.797   268.000   268.000   10.720   10.720   0.000   0.000
0.02625   0.00675   309.279   1137.797   268.000   268.000   10.720   10.720   0.000   0.000
0.02875   0.00675   312.488   1137.797   268.000   268.000   10.720   10.720   0.000   0.000
0.03125   0.00675   316.017   1137.797   268.000   268.000   10.720   10.720   0.000   0.000
0.03375   0.00675   319.356   1137.797   268.000   268.000   10.720   10.720   0.000   0.000
0.03625   0.00675   322.393   1137.797   268.000   268.000   10.720   10.720   0.000   0.000
0.03875   0.00675   325.137   1137.797   268.000   268.000   10.720   10.720   0.000   0.000
0.04125   0.00675   327.618   1137.797   268.000   268.000   10.720   10.720   0.000   0.000
0.04375   0.00675   329.865   1137.797   268.000   268.000   10.720   10.720   0.000   0.000
0.04625   0.00675   331.906   1137.797   268.000   268.000   10.720   10.720   0.000   0.000
0.04875   0.00675   333.770   1137.797   268.000   268.000   10.720   0.000   0.000   16.179
0.00125   0.00625   296.106   1137.797   268.000   2.085   0.000   10.720   0.000   0.000
0.00375   0.00625   296.297   1137.797   268.000   2.085   10.720   10.720   0.000   0.000
0.00625   0.00625   296.683   1137.797   268.000   2.085   10.720   10.720   0.000   0.000
0.00875   0.00625   297.276   1137.797   268.000   2.085   10.720   10.720   0.000   0.000
0.01125   0.00625   298.094   1137.797   268.000   2.085   10.720   10.720   0.000   0.000
0.01375   0.00625   299.157   1137.797   268.000   2.085   10.720   10.720   0.000   0.000
0.01625   0.00625   300.494   1137.797   268.000   2.085   10.720   10.720   0.000   0.000
0.01875   0.00625   302.135   1137.797   268.000   2.085   10.720   10.720   0.000   0.000
0.02125   0.00625   304.117   1137.797   268.000   2.085   10.720   10.720   0.000   0.000
0.02375   0.00625   306.478   1137.797   268.000   2.085   10.720   10.720   0.000   0.000
0.02625   0.00625   309.254   1137.797   268.000   2.085   10.720   10.720   0.000   0.000
0.02875   0.00625   312.453   1137.797   268.000   2.085   10.720   10.720   0.000   0.000
0.03125   0.00625   315.957   1137.797   268.000   2.085   10.720   10.720   0.000   0.000
0.03375   0.00625   319.285   1137.797   268.000   2.085   10.720   10.720   0.000   0.000
0.03625   0.00625   322.318   1137.797   268.000   2.085   10.720   10.720   0.000   0.000
0.03875   0.00625   325.060   1137.797   268.000   2.085   10.720   10.720   0.000   0.000
0.04125   0.00625   327.539   1137.797   268.000   2.085   10.720   10.720   0.000   0.000
0.04375   0.00625   329.784   1137.797   268.000   2.085   10.720   10.720   0.000   0.000
0.04625   0.00625   331.827   1137.797   268.000   2.085   10.720   10.720   0.000   0.000
0.04875   0.00625   333.721   1137.797   268.000   2.085   10.720   0.000   0.000   16.179
0.00125   0.00575   295.183   686.719   2.085   1.046   0.000   0.042   0.000   0.000
0.00375   0.00575   295.331   686.719   2.085   1.046   0.042   0.042   0.000   0.000
0.00625   0.00575   295.632   686.719   2.085   1.046   0.042   0.042   0.000   0.000
0.00875   0.00575   296.097   686.719   2.085   1.046   0.042   0.042   0.000   0.000
0.01125   0.00575   296.740   686.719   2.085   1.046   0.042   0.042   0.000   0.000
0.01375   0.00575   297.584   686.719   2.085   1.046   0.042   0.042   0.000   0.000
0.01625   0.00575   298.653   686.719   2.085   1.046   0.042   0.042   0.000   0.000
0.01875   0.00575   299.977   686.719   2.085   1.046   0.042   0.042   0.000   0.000
0.02125   0.00575   301.590   686.719   2.085   1.046   0.042   0.042   0.000   0.000
0.02375   0.00575   303.530   686.719   2.085   1.046   0.042   0.042   0.000   0.000
0.02625   0.00575   305.831   686.719   2.085   1.046   0.042   0.042   0.000   0.000
0.02875   0.00575   308.504   686.719   2.085   1.046   0.042   0.042   0.000   0.000
0.03125   0.00575   311.445   686.719   2.085   1.046   0.042   0.042   0.000   0.000
0.03375   0.00575   314.260   686.719   2.085   1.046   0.042   0.042   0.000   0.000
0.03625   0.00575   316.843   686.719   2.085   1.046   0.042   0.042   0.000   0.000
0.03875   0.00575   319.203   686.719   2.085   1.046   0.042   0.042   0.000   0.000
0.04125   0.00575   321.372   686.719   2.085   1.046   0.042   0.042   0.000   0.000
0.04375   0.00575   323.392   686.719   2.085   1.046   0.042   0.042   0.000   0.000
0.04625   0.00575   325.531   686.719   2.085   1.046   0.042   0.042   0.000   0.000
0.04875   0.00575   332.470   686.719   2.085   1.046   0.042   0.000   0.000   6.069
0.00125   0.00525   294.151   686.719   1.046   1.046   0.000   0.042   0.000   0.000
0.00375   0.00525   294.242   686.719   1.046   1.046   0.042   0.042   0.000   0.000
0.00625   0.00525   294.427   686.719   1.046   1.046   0.042   0.042   0.000   0.000
0.00875   0.00525   294.714   686.719   1.046   1.046   0.042   0.042   0.000   0.000
0.01125   0.00525   295.117   686.719   1.046   1.046   0.042   0.042   0.000   0.000
0.01375   0.00525   295.651   686.719   1.046   1.046   0.042   0.042   0.000   0.000
0.01625   0.00525   296.337   686.719   1.046   1.046   0.042   0.042   0.000   0.000
0.01875   0.00525   297.199   686.719   1.046   1.046   0.042   0.042   0.000   0.000
0.02125   0.00525   298.266   686.719   1.046   1.046   0.042   0.042   0.000   0.000
0.02375   0.00525   299.568   686.719   1.046   1.046   0.042   0.042   0.000   0.000
0.02625   0.00525   301.135   686.719   1.046   1.046   0.042   0.042   0.000   0.000
0.02875   0.00525   302.978   686.719   1.046   1.046   0.042   0.042   0.000   0.000
0.03125   0.00525   305.030   686.719   1.046   1.046   0.042   0.042   0.000   0.000
0.03375   0.00525   307.030   686.719   1.046   1.046   0.042   0.042   0.000   0.000
0.03625   0.00525   308.911   686.719   1.046   1.046   0.042   0.042   0.000   0.000
0.03875   0.00525   310.684   686.719   1.046   1.046   0.042   0.042   0.000   0.000
0.04125   0.00525   312.380   686.719   1.046   1.046   0.042   0.042   0.000   0.000
0.04375   0.00525   314.060   686.719   1.046   1.046   0.042   0.042   0.000   0.000
0.04625   0.00525   316.295   686.719   1.046   1.046   0.042   0.042   0.000   0.000
0.04875   0.00525   328.017   686.719   1.046   1.046   0.042   0.000   0.000   6.074
0.00125   0.00475   293.620   686.719   1.046   1.046   0.000   0.042   0.000   0.000
0.00375   0.00475   293.675   686.719   1.046   1.046   0.042   0.042   0.000   0.000
0.00625   0.00475   293.787   686.719   1.046   1.046   0.042   0.042   0.000   0.000
0.00875   0.00475   293.964   686.719   1.046   1.046   0.042   0.042   0.000   0.000
0.01125   0.00475   294.212   686.719   1.046   1.046   0.042   0.042   0.000   0.000
0.01375   0.00475   294.545   686.719   1.046   1.046   0.042   0.042   0.000   0.000
0.01625   0.00475   294.976   686.719   1.046   1.046   0.042   0.042   0.000   0.000
0.01875   0.00475   295.524   686.719   1.046   1.046   0.042   0.042   0.000   0.000
0.02125   0.00475   296.209   686.719   1.046   1.046   0.042   0.042   0.000   0.000
0.02375   0.00475   297.054   686.719   1.046   1.046   0.042   0.042   0.000   0.000
0.02625   0.00475   298.081   686.719   1.046   1.046   0.042   0.042   0.000   0.000
0.02875   0.00475   299.301   686.719   1.046   1.046   0.042   0.042   0.000   0.000
0.03125   0.00475   300.679   686.719   1.046   1.046   0.042   0.042   0.000   0.000
0.03375   0.00475   302.069   686.719   1.046   1.046   0.042   0.042   0.000   0.000
0.03625   0.00475   303.438   686.719   1.046   1.046   0.042   0.042   0.000   0.000
0.03875   0.00475   304.796   686.719   1.046   1.046   0.042   0.042   0.000   0.000
0.04125   0.00475   306.170   686.719   1.046   1.046   0.042   0.042   0.000   0.000
0.04375   0.00475   307.614   686.719   1.046   1.046   0.042   0.042   0.000   0.000
0.04625   0.00475   309.695   686.719   1.046   1.046   0.042   0.042   0.000   0.000
0.04875   0.00475   321.348   686.719   1.046   1.046   0.042   0.000   0.000   6.082
0.00125   0.00425   293.399   686.719   1.046   2.085   0.000   0.042   0.000   0.000
0.00375   0.00425   293.434   686.719   1.046   2.085   0.042   0.042   0.000   0.000
0.00625   0.00425   293.507   686.719   1.046   2.085   0.042   0.042   0.000   0.000
0.00875   0.00425   293.620   686.719   1.046   2.085   0.042   0.042   0.000   0.000
0.01125   0.00425   293.780   686.719   1.046   2.085   0.042   0.042   0.000   0.000
0.01375   0.00425   293.993   686.719   1.046   2.085   0.042   0.042   0.000   0.000
0.01625   0.00425   294.268   686.719   1.046   2.085   0.042   0.042   0.000   0.000
0.01875   0.00425   294.615   686.719   1.046   2.085   0.042   0.042   0.000   0.000
0.02125   0.00425   295.048   686.719   1.046   2.085   0.042   0.042   0.000   0.000
0.02375   0.00425   295.579   686.719   1.046   2.085   0.042   0.042   0.000   0.000
0.02625   0.00425   296.220   686.719   1.046   2.085   0.042   0.042   0.000   0.000
0.02875   0.00425   296.983   686.719   1.046   2.085   0.042   0.042   0.000   0.000
0.03125   0.00425   297.859   686.719   1.046   2.085   0.042   0.042   0.000   0.000
0.03375   0.00425   298.807   686.719   1.046   2.085   0.042   0.042   0.000   0.000
0.03625   0.00425   299.820   686.719   1.046   2.085   0.042   0.042   0.000   0.000
0.03875   0.00425   300.908   686.719   1.046   2.085   0.042   0.042   0.000   0.000
0.04125   0.00425   302.085   686.719   1.046   2.085   0.042   0.042   0.000   0.000
0.04375   0.00425   303.380   686.719   1.046   2.085   0.042   0.042   0.000   0.000
0.04625   0.00425   305.046   686.719   1.046   2.085   0.042   0.042   0.000   0.000
0.04875   0.00425   311.761   686.719   1.046   2.085   0.042   0.000   0.000   6.092
0.00125   0.00375   293.393   1137.797   2.085   268.000   0.000   10.720   0.000   0.000
0.00375   0.00375   293.424   1137.797   2.085   268.000   10.720   10.720   0.000   0.000
0.00625   0.00375   293.488   1137.797   2.085   268.000   10.720   10.720   0.000   0.000
0.00875   0.00375   293.586   1137.797   2.085   268.000   10.720   10.720   0.000   0.000
0.01125   0.00375   293.723   1137.797   2.085   268.000   10.720   10.720   0.000   0.000
0.01375   0.00375   293.903   1137.797   2.085   268.000   10.720   10.720   0.000   0.000
0.01625   0.00375   294.132   1137.797   2.085   268.000   10.720   10.720   0.000   0.000
0.01875   0.00375   294.417   1137.797   2.085   268.000   10.720   10.720   0.000   0.000
0.02125   0.00375   294.766   1137.797   2.085   268.000   10.720   10.720   0.000   0.000
0.02375   0.00375   295.185   1137.797   2.085   268.000   10.720   10.720   0.000   0.000
0.02625   0.00375   295.684   1137.797   2.085   268.000   10.720   10.720   0.000   0.000
0.02875   0.00375   296.270   1137.797   2.085   268.000   10.720   10.720   0.000   0.000
0.03125   0.00375   296.949   1137.797   2.085   268.000   10.720   10.720   0.000   0.000
0.03375   0.00375   297.727   1137.797   2.085   268.000   10.720   10.720   0.000   0.000
0.03625   0.00375   298.612   1137.797   2.085   268.000   10.720   10.720   0.000   0.000
0.03875   0.00375   299.610   1137.797   2.085   268.000   10.720   10.720   0.000   0.000
0.04125   0.00375   300.730   1137.797   2.085   268.000   10.720   10.720   0.000   0.000
0.04375   0.00375   301.978   1137.797   2.085   268.000   10.720   10.720   0.000   0.000
0.04625   0.00375   303.369   1137.797   2.085   268.000   10.720   10.720   0.000   0.000
0.04875   0.00375   304.943   1137.797   2.085   268.000   10.720   0.000   0.000   16.265
0.00125   0.00325   293.393   1137.797   268.000   268.000   0.000   10.720   0.000   0.000
0.00375   0.00325   293.424   1137.797   268.000   268.000   10.720   10.720   0.000   0.000
0.00625   0.00325   293.488   1137.797   268.000   268.000   10.720   10.720   0.000   0.000
0.00875   0.00325   293.586   1137.797   268.000   268.000   10.720   10.720   0.000   0.000
0.01125   0.00325   293.722   1137.797   268.000   268.000   10.720   10.720   0.000   0.000
0.01375   0.00325   293.902   1137.797   268.000   268.000   10.720   10.720   0.000   0.000
0.01625   0.00325   294.131   1137.797   268.000   268.000   10.720   10.720   0.000   0.000
0.01875   0.00325   294.416   1137.797   268.000   268.000   10.720   10.720   0.000   0.000
0.02125   0.00325   294.764   1137.797   268.000   268.000   10.720   10.720   0.000   0.000
0.02375   0.00325   295.183   1137.797   268.000   268.000   10.720   10.720   0.000   0.000
0.02625   0.00325   295.680   1137.797   268.000   268.000   10.720   10.720   0.000   0.000
0.02875   0.00325   296.265   1137.797   268.000   268.000   10.720   10.720   0.000   0.000
0.03125   0.00325   296.943   1137.797   268.000   268.000   10.720   10.720   0.000   0.000
0.03375   0.00325   297.720   1137.797   268.000   268.000   10.720   10.720   0.000   0.000
0.03625   0.00325   298.604   1137.797   268.000   268.000   10.720   10.720   0.000   0.000
0.03875   0.00325   299.602   1137.797   268.000   268.000   10.720   10.720   0.000   0.000
0.04125   0.00325   300.720   1137.797   268.000   268.000   10.720   10.720   0.000   0.000
0.04375   0.00325   301.968   1137.797   268.000   268.000   10.720   10.720   0.000   0.000
0.04625   0.00325   303.355   1137.797   268.000   268.000   10.720   10.720   0.000   0.000
0.04875   0.00325   304.899   1137.797   268.000   268.000   10.720   0.000   0.000   16.265
0.00125   0.00275   293.393   1137.797   268.000   268.000   0.000   10.720   0.000   0.000
0.00375   0.00275   293.424   1137.797   268.000   268.000   10.720   10.720   0.000   0.000
0.00625   0.00275   293.487   1137.797   268.000   268.000   10.720   10.720   0.000   0.000
0.00875   0.00275   293.585   1137.797   268.000   268.000   10.720   10.720   0.000   0.000
0.01125   0.00275   293.722   1137.797   268.000   268.000   10.720   10.720   0.000   0.000
0.01375   0.00275   293.901   1137.797   268.000   268.000   10.720   10.720   0.000   0.000
0.01625   0.00275   294.130   1137.797   268.000   268.000   10.720   10.720   0.000   0.000
0.01875   0.00275   294.415   1137.797   268.000   268.000   10.720   10.720   0.000   0.000
0.02125   0.00275   294.762   1137.797   268.000   268.000   10.720   10.720   0.000   0.000
0.02375   0.00275   295.180   1137.797   268.000   268.000   10.720   10.720   0.000   0.000
0.02625   0.00275   295.677   1137.797   268.000   268.000   10.720   10.720   0.000   0.000
0.02875   0.00275   296.261   1137.797   268.000   268.000   10.720   10.720   0.000   0.000
0.03125   0.00275   296.937   1137.797   268.000   268.000   10.720   10.720   0.000   0.000
0.03375   0.00275   297.714   1137.797   268.000   268.000   10.720   10.720   0.000   0.000
0.03625   0.00275   298.597   1137.797   268.000   268.000   10.720   10.720   0.000   0.000
0.03875   0.00275   299.594   1137.797   268.000   268.000   10.720   10.720   0.000   0.000
0.04125   0.00275   300.712   1137.797   268.000   268.000   10.720   10.720   0.000   0.000
0.04375   0.00275   301.959   1137.797   268.000   268.000   10.720   10.720   0.000   0.000
0.04625   0.00275   303.342   1137.797   268.000   268.000   10.720   10.720   0.000   0.000
0.04875   0.00275   304.864   1137.797   268.000   268.000   10.720   0.000   0.000   16.265
0.00125   0.00225   293.393   1137.797   268.000   268.000   0.000   10.720   0.000   0.000
0.00375   0.00225   293.424   1137.797   268.000   268.000   10.720   10.720   0.000   0.000
0.00625   0.00225   293.487   1137.797   268.000   268.000   10.720   10.720   0.000   0.000
0.00875   0.00225   293.585   1137.797   268.000   268.000   10.720   10.720   0.000   0.000
0.01125   0.00225   293.722   1137.797   268.000   268.000   10.720   10.720   0.000   0.000
0.01375   0.00225   293.901   1137.797   268.000   268.000   10.720   10.720   0.000   0.000
0.01625   0.00225   294.129   1137.797   268.000   268.000   10.720   10.720   0.000   0.000
0.01875   0.00225   294.414   1137.797   268.000   268.000   10.720   10.720   0.000   0.000
0.02125   0.00225   294.761   1137.797   268.000   268.000   10.720   10.720   0.000   0.000
0.02375   0.00225   295.178   1137.797   268.000   268.000   10.720   10.720   0.000   0.000
0.02625   0.00225   295.675   1137.797   268.000   268.000   10.720   10.720   0.000   0.000
0.02875   0.00225   296.257   1137.797   268.000   268.000   10.720   10.720   0.000   0.000
0.03125   0.00225   296.933   1137.797   268.000   268.000   10.720   10.720   0.000   0.000
0.03375   0.00225   297.709   1137.797   268.000   268.000   10.720   10.720   0.000   0.000
0.03625   0.00225   298.591   1137.797   268.000   268.000   10.720   10.720   0.000   0.000
0.03875   0.00225   299.588   1137.797   268.000   268.000   10.720   10.720   0.000   0.000
0.04125   0.00225   300.706   1137.797   268.000   268.000   10.720   10.720   0.000   0.000
0.04375   0.00225   301.952   1137.797   268.000   268.000   10.720   10.720   0.000   0.000
0.04625   0.00225   303.331   1137.797   268.000   268.000   10.720   10.720   0.000   0.000
0.04875   0.00225   304.835   1137.797   268.000   268.000   10.720   0.000   0.000   16.265
0.00125   0.00175   293.393   1137.797   268.000   268.000   0.000   10.720   0.000   0.000
0.00375   0.00175   293.424   1137.797   268.000   268.000   10.720   10.720   0.000   0.000
0.00625   0.00175   293.487   1137.797   268.000   268.000   10.720   10.720   0.000   0.000
0.00875   0.00175   293.585   1137.797   268.000   268.000   10.720   10.720   0.000   0.000
0.01125   0.00175   293.721   1137.797   268.000   268.000   10.720   10.720   0.000   0.000
0.01375   0.00175   293.901   1137.797   268.000   268.000   10.720   10.720   0.000   0.000
0.01625   0.00175   294.129   1137.797   268.000   268.000   10.720   10.720   0.000   0.000
0.01875   0.00175   294.413   1137.797   268.000   268.000   10.720   10.720   0.000   0.000
0.02125   0.00175   294.759   1137.797   268.000   268.000   10.720   10.720   0.000   0.000